  53
Step 11
  C     -1.79974173     -0.40206965     -0.02521058
  C     -1.35737308     -1.75139624     -0.02088628
  C      0.09505907     -1.78396458      0.27694540
  C      0.47358105     -0.36931169      0.50876459
  C     -0.67456243      0.45008356      0.35138024
  C     -3.10913671     -0.07177946     -0.37189751
  C     -3.99423348     -1.08853657     -0.73200356
  C     -3.56164003     -2.41918022     -0.76117724
  C     -2.25060667     -2.75480875     -0.41855569
  H     -3.43490756      0.96480797     -0.37273148
  H     -5.01781955     -0.84643816     -1.00256855
  H     -4.25202699     -3.20339446     -1.05824059
  H     -1.94294927     -3.79300492     -0.47097265
  C     -0.62364967      1.82009605      0.60546855
  C      1.65547326      0.20538697      0.99204947
  C      0.57551241      2.38505880      1.04129912
  C      1.70069577      1.57766227      1.24430808
  H      2.53480709     -0.40005304      1.17515747
  H      2.62310066      2.02109775      1.60792571
  H     -1.50972210      2.43753066      0.48493192
  H      0.63081411      3.45096328      1.24246298
  C      0.88803913     -2.90932424      0.38000903
  C      0.36828538     -4.26968484      0.89246231
  C      2.33068114     -3.04319560      0.14706527
  C      1.65169262     -5.10077675      1.17941749
  C      2.78127514     -4.26072471      0.66282864
  H      1.63946285     -6.07767141      0.68152773
  H      1.76366196     -5.30991683      2.24960881
  C      4.13831406     -4.63318992      0.63347240
  C      5.05238153     -3.80130626      0.02982727
  C      3.24357433     -2.24411315     -0.63727640
  C      4.63040348     -2.62328322     -0.64570429
  H      4.45403729     -5.56987377      1.08464239
  H      6.10778967     -4.06013840      0.01271263
  C      5.56303805     -1.84663564     -1.38251975
  C      2.85254594     -1.16554064     -1.47091625
  C      3.77908048     -0.45186483     -2.20291602
  C      5.15205622     -0.77315720     -2.13928742
  H      1.80520126     -0.90966411     -1.54645666
  H      3.44484212      0.36332993     -2.83777188
  H      6.61078831     -2.13478611     -1.35708854
  H      5.87358041     -0.19249747     -2.70625044
  H     -0.18980565     -4.77593372      0.09297707
  C     -0.57158388     -4.17781656      2.13152108
  C     -1.13393282     -5.56318981      2.48697967
  H     -1.66555636     -6.01090761      1.63946114
  H     -1.83835948     -5.49217214      3.32226245
  H     -0.34122683     -6.25847860      2.78625338
  C      0.08798663     -3.52005632      3.35450611
  H      0.91394766     -4.11989560      3.75272475
  H     -0.64641410     -3.41092170      4.15920158
  H      0.47413590     -2.52483545      3.11849960
  H     -1.41839660     -3.54643686      1.85084745
