[Molden Format]
[Geometries] (XYZ)
53

C       -1.726151      -0.409677       0.011919
C       -1.357701      -1.757404      -0.029774
C        0.110194      -1.854453       0.233887
C        0.532982      -0.439076       0.479465
C       -0.587157       0.385717       0.335171
C       -3.041520      -0.006260      -0.266807
C       -3.972529      -0.985896      -0.618577
C       -3.592538      -2.328146      -0.716066
C       -2.279770      -2.719907      -0.442053
H       -3.332570       1.039864      -0.225154
H       -4.998580      -0.698882      -0.841136
H       -4.324441      -3.073347      -1.021278
H       -1.992048      -3.758584      -0.560452
C       -0.508875       1.767999       0.567627
C        1.725023       0.091373       0.974462
C        0.713293       2.300131       0.983142
C        1.814945       1.467035       1.199685
H        2.574782      -0.545513       1.195827
H        2.748817       1.891584       1.562576
H       -1.377124       2.410778       0.450811
H        0.800256       3.368402       1.172184
C        0.853119      -2.969409       0.329298
C        0.360104      -4.325574       0.840291
C        2.331714      -3.013857       0.143901
C        1.682471      -5.073246       1.206181
C        2.798621      -4.176181       0.724882
H        1.728354      -6.043011       0.705012
H        1.793726      -5.256978       2.274289
C        4.153383      -4.484559       0.765013
C        5.053335      -3.620311       0.144256
C        3.204568      -2.243370      -0.648173
C        4.582359      -2.529205      -0.593435
H        4.500322      -5.390468       1.257746
H        6.118690      -3.838849       0.168992
C        5.490911      -1.757254      -1.319951
C        2.762482      -1.258960      -1.541302
C        3.672432      -0.501944      -2.275984
C        5.038153      -0.734782      -2.149396
H        1.703170      -1.079281      -1.688399
H        3.311363       0.269631      -2.953095
H        6.555668      -1.969089      -1.259035
H        5.747466      -0.139842      -2.721505
H       -0.110620      -4.871343       0.019839
C       -0.621801      -4.259021       2.062468
C       -1.090913      -5.671240       2.477162
H       -1.563828      -6.182400       1.635490
H       -1.823242      -5.606486       3.285323
H       -0.258849      -6.285169       2.827709
C       -0.054487      -3.497856       3.286749
H        0.799560      -4.006138       3.735466
H       -0.822875      -3.409449       4.058120
H        0.253190      -2.486997       3.011328
H       -1.515637      -3.719010       1.764371
53

C       -1.780252      -0.439383      -0.413816
C       -1.498516      -1.753112      -0.012446
C       -0.022258      -1.839106       0.265190
C        0.412268      -0.415295       0.259478
C       -0.624473       0.375210      -0.235419
C       -3.080417      -0.041701      -0.763462
C       -4.099319      -0.992878      -0.713318
C       -3.831965      -2.297589      -0.291876
C       -2.539295      -2.683373       0.071728
H       -3.301405       0.984021      -1.046335
H       -5.115996      -0.709403      -0.980207
H       -4.644103      -3.019542      -0.235936
H       -2.383218      -3.695112       0.416414
C       -0.525036       1.776049      -0.248958
C        1.469224       0.181968       0.945106
C        0.620248       2.361632       0.296537
C        1.596164       1.572765       0.914301
H        2.199368      -0.428301       1.471033
H        2.448674       2.046510       1.396840
H       -1.335011       2.398659      -0.619952
H        0.721876       3.445273       0.301772
C        0.736700      -2.953071       0.302750
C        0.200791      -4.301642       0.775062
C        2.226221      -3.052766       0.088341
C        1.423334      -5.248508       0.673134
C        2.603209      -4.328446       0.477124
H        1.328346      -5.868705      -0.220936
H        1.545944      -5.914044       1.528768
C        3.933857      -4.706942       0.605702
C        4.923039      -3.785413       0.276344
C        3.215106      -2.201941      -0.453799
C        4.569701      -2.558840      -0.292407
H        4.195554      -5.705365       0.949522
H        5.971064      -4.058502       0.377327
C        5.586893      -1.718522      -0.750438
C        2.930717      -1.082133      -1.244123
C        3.945719      -0.252250      -1.714911
C        5.275277      -0.552345      -1.442153
H        1.916341      -0.868691      -1.555717
H        3.694744       0.622847      -2.310671
H        6.629102      -1.987238      -0.596728
H        6.068315       0.094697      -1.811183
H       -0.574504      -4.685636       0.112519
C       -0.337112      -4.209285       2.244322
C       -1.064795      -5.507457       2.658739
H       -1.868307      -5.738602       1.956443
H       -1.509364      -5.392347       3.649392
H       -0.381835      -6.358271       2.692401
C        0.743849      -3.844506       3.292286
H        1.505346      -4.621113       3.384752
H        0.283852      -3.711648       4.274565
H        1.237603      -2.905790       3.030047
H       -1.079065      -3.410727       2.285923
53

C       -1.850268      -0.647974      -0.767115
C       -1.519599      -1.609972       0.193859
C       -0.038983      -1.515760       0.466694
C        0.226509      -0.112552       0.019739
C       -0.778184       0.280996      -0.870972
C       -3.161162      -0.514872      -1.253500
C       -4.147036      -1.357766      -0.739830
C       -3.845565      -2.254510       0.287454
C       -2.543781      -2.360514       0.782713
H       -3.422670       0.257548      -1.971547
H       -5.171551      -1.270316      -1.096483
H       -4.639100      -2.857573       0.724720
H       -2.351897      -3.012473       1.627177
C       -0.859566       1.595433      -1.360380
C        0.878601       0.907095       0.719910
C        0.016098       2.548041      -0.838719
C        0.841434       2.217442       0.237410
H        1.448963       0.671381       1.617227
H        1.425004       2.992882       0.728331
H       -1.645081       1.899029      -2.047498
H       -0.032618       3.579452      -1.187269
C        0.746716      -2.628885       0.570028
C        0.113924      -3.975236       0.940245
C        2.198665      -2.924172       0.142600
C        0.972931      -5.026895       0.231210
C        2.264359      -4.312699      -0.013702
H        0.528692      -5.290715      -0.731424
H        1.104248      -5.942003       0.812133
C        3.423171      -5.016104      -0.309509
C        4.608034      -4.321368      -0.455856
C        3.426307      -2.217078      -0.034191
C        4.613965      -2.937284      -0.315539
H        3.402712      -6.099464      -0.406193
H        5.526434      -4.857737      -0.680289
C        5.845662      -2.293158      -0.466624
C        3.565756      -0.836808       0.035171
C        4.784710      -0.181842      -0.119963
C        5.936851      -0.912904      -0.361843
H        2.715106      -0.240113       0.151992
H        4.828224       0.904285      -0.066673
H        6.744405      -2.871104      -0.673671
H        6.894451      -0.410482      -0.487024
H       -0.875452      -4.116027       0.516159
C        0.045274      -4.152886       2.491956
C       -0.831690      -5.364410       2.878960
H       -1.829879      -5.274000       2.447331
H       -0.939788      -5.422108       3.964543
H       -0.393079      -6.301840       2.532986
C        1.428496      -4.265884       3.177375
H        1.965189      -5.161879       2.859201
H        1.308103      -4.314895       4.262164
H        2.047235      -3.393254       2.953217
H       -0.437081      -3.261975       2.902379
53

C       -1.963522      -0.640526      -0.513539
C       -1.481530      -1.378389       0.562723
C        0.012981      -1.376955       0.520529
C        0.315875      -0.237167      -0.432452
C       -0.877975       0.046501      -1.125031
C       -3.342830      -0.484082      -0.728683
C       -4.224374      -1.075774       0.178470
C       -3.740540      -1.757849       1.298698
C       -2.366562      -1.888920       1.513216
H       -3.723672       0.113118      -1.552536
H       -5.297367      -0.962957       0.038668
H       -4.441000      -2.173249       2.020984
H       -2.004779      -2.380197       2.407879
C       -0.979869       1.109593      -2.037330
C        1.326990       0.730930      -0.491308
C        0.120753       1.942553      -2.213579
C        1.252111       1.773032      -1.419098
H        2.185806       0.714474       0.145897
H        2.073252       2.481767      -1.498132
H       -1.912987       1.327374      -2.548735
H        0.064466       2.779715      -2.906881
C        0.713854      -2.526898       0.659496
C        0.047673      -3.880500       0.889731
C        2.108989      -2.795220       0.208893
C        0.821884      -4.787517      -0.116967
C        2.138991      -4.071856      -0.317886
H        0.284941      -4.827867      -1.067595
H        0.964142      -5.807848       0.244270
C        3.295270      -4.629276      -0.852118
C        4.474719      -3.886535      -0.804901
C        3.319264      -2.116967       0.405477
C        4.499003      -2.656986      -0.138440
H        3.283888      -5.632541      -1.273539
H        5.392581      -4.304194      -1.212800
C        5.717499      -1.997520       0.030442
C        3.411636      -0.981957       1.208903
C        4.630786      -0.331347       1.390739
C        5.782892      -0.831512       0.790159
H        2.523651      -0.591988       1.696884
H        4.681862       0.567418       2.003483
H        6.626115      -2.406714      -0.405243
H        6.735423      -0.325865       0.931814
H       -0.986835      -3.891840       0.542498
C        0.099223      -4.349679       2.378843
C       -0.798171      -5.587472       2.598008
H       -1.831180      -5.368945       2.313091
H       -0.795631      -5.878629       3.651266
H       -0.451487      -6.440359       2.009819
C        1.527067      -4.636967       2.902796
H        1.989290      -5.473350       2.374484
H        1.494413      -4.889029       3.964210
H        2.167083      -3.760459       2.793565
H       -0.301862      -3.548480       2.999930
53

C       -2.023711      -0.297232      -0.183325
C       -1.522296      -1.332075       0.606100
C       -0.053318      -1.478226       0.343863
C        0.249797      -0.347531      -0.611738
C       -0.959178       0.294650      -0.917277
C       -3.374429       0.082715      -0.123552
C       -4.213405      -0.596854       0.760988
C       -3.706610      -1.603594       1.587108
C       -2.358443      -1.965408       1.526351
H       -3.762876       0.892197      -0.735045
H       -5.265049      -0.324334       0.824759
H       -4.367583      -2.101639       2.294676
H       -1.982845      -2.718666       2.203291
C       -1.013562       1.412762      -1.765442
C        1.431660       0.147489      -1.173279
C        0.174865       1.879965      -2.322826
C        1.385004       1.250724      -2.028772
H        2.390765      -0.308894      -1.002311
H        2.305957       1.624201      -2.472156
H       -1.953690       1.911007      -1.984987
H        0.159551       2.740083      -2.990306
C        0.651936      -2.611274       0.521556
C        0.046813      -3.988804       0.743071
C        2.063159      -2.801800       0.119153
C        0.874040      -4.838665      -0.275866
C        2.175794      -4.069947      -0.412948
H        0.367351      -4.872333      -1.243536
H        1.039049      -5.863097       0.062902
C        3.397317      -4.567227      -0.853914
C        4.537894      -3.779233      -0.680556
C        3.214230      -2.081980       0.458410
C        4.456195      -2.562936       0.010362
H        3.467329      -5.562242      -1.287954
H        5.505217      -4.150809      -1.011436
C        5.621265      -1.851397       0.301555
C        3.167589      -0.945838       1.273497
C        4.336408      -0.247064       1.568857
C        5.559582      -0.689431       1.069436
H        2.218475      -0.591007       1.667248
H        4.291805       0.646649       2.188935
H        6.584446      -2.212494      -0.051192
H        6.470777      -0.139619       1.299892
H       -0.997620      -4.013495       0.426459
C        0.158330      -4.487612       2.222834
C       -0.695169      -5.757154       2.433808
H       -1.728227      -5.583020       2.123765
H       -0.705625      -6.038667       3.490171
H       -0.300737      -6.599336       1.861818
C        1.602234      -4.745772       2.718061
H        2.092651      -5.536184       2.146319
H        1.590695      -5.050853       3.766153
H        2.206706      -3.840015       2.651283
H       -0.248314      -3.714595       2.874808
53

C       -1.884625      -0.120063       0.132682
C       -1.560800      -1.433192       0.492841
C       -0.136604      -1.689633       0.090109
C        0.262430      -0.441338      -0.641542
C       -0.788223       0.475899      -0.553618
C       -3.145677       0.429167       0.413916
C       -4.077753      -0.363648       1.083851
C       -3.756111      -1.669095       1.463233
C       -2.499728      -2.209550       1.177664
H       -3.399466       1.444007       0.120090
H       -5.062219       0.039132       1.315036
H       -4.492766      -2.270221       1.992715
H       -2.285926      -3.216913       1.502936
C       -0.717141       1.734962      -1.171009
C        1.350156      -0.158402      -1.470556
C        0.422120       2.041536      -1.916479
C        1.437169       1.095310      -2.080483
H        2.117653      -0.897186      -1.669265
H        2.296057       1.329694      -2.706014
H       -1.533245       2.448549      -1.098407
H        0.501761       3.009102      -2.408439
C        0.598549      -2.789917       0.333578
C        0.050250      -4.177980       0.613046
C        2.043454      -2.921568       0.020908
C        1.001881      -5.059757      -0.256555
C        2.258917      -4.221762      -0.390062
H        0.568223      -5.218227      -1.246814
H        1.206073      -6.034312       0.190399
C        3.526989      -4.677107      -0.733314
C        4.606598      -3.801795      -0.602193
C        3.134652      -2.092140       0.318629
C        4.420450      -2.530204      -0.045362
H        3.676843      -5.701818      -1.066985
H        5.607424      -4.137912      -0.864113
C        5.527533      -1.713520       0.191203
C        2.993625      -0.879240       1.001215
C        4.104328      -0.073130       1.241759
C        5.368291      -0.482299       0.824157
H        2.018705      -0.551717       1.350738
H        3.981352       0.877429       1.757053
H        6.522094      -2.043513      -0.099504
H        6.233904       0.149833       1.012839
H       -0.957106      -4.284237       0.208208
C        0.052669      -4.535377       2.135355
C       -0.712403      -5.852838       2.389813
H       -1.725086      -5.795093       1.984534
H       -0.791675      -6.045627       3.462244
H       -0.204967      -6.702892       1.929604
C        1.458807      -4.616882       2.776908
H        2.066651      -5.400931       2.321233
H        1.373842      -4.837398       3.843340
H        1.987236      -3.666269       2.682256
H       -0.482968      -3.745824       2.665692
[GEOCONV]
energy
0.0
8.187617805949102
35.059898631763545
13.610703616164457
-0.22876065282568447
-4.641078244035299
max-force
0.0
0.00018564829766966226
0.0005689244248022381
0.0006642772018812945
0.00022664670646502745
7.181431815124447e-05
max-step
1000.0
1000.0
1000.0
1000.0
1000.0
1000.0
