[Molden Format]
[Geometries] (XYZ)
54

C       -1.601853      -0.223233       0.032402
C       -1.251778      -1.575587       0.040789
C        0.228882      -1.680692       0.213847
C        0.686037      -0.258259       0.340135
C       -0.433874       0.571863       0.221924
C       -2.930118       0.183438      -0.170413
C       -3.893976      -0.801139      -0.398734
C       -3.533956      -2.151353      -0.454251
C       -2.208205      -2.545015      -0.257568
H       -3.208329       1.233798      -0.163900
H       -4.931238      -0.513309      -0.559051
H       -4.291855      -2.902917      -0.664895
H       -1.936003      -3.589633      -0.354164
C       -0.327891       1.965708       0.350437
C        1.913621       0.290743       0.716235
C        0.924967       2.508745       0.640364
C        2.031127       1.677250       0.837507
H        2.772039      -0.334598       0.933173
H        2.991566       2.112751       1.105893
H       -1.196223       2.611212       0.249305
H        1.034394       3.586275       0.748090
C        0.953887      -2.803267       0.349962
C        0.463172      -4.141242       0.900533
C        2.432260      -2.865149       0.201893
C        1.746011      -4.697280       1.587111
C        2.884524      -3.926741       0.958687
H        1.845174      -5.774222       1.434421
H        1.737246      -4.496990       2.661446
C        4.234350      -4.249306       1.034825
C        5.140608      -3.510081       0.273753
C        3.307188      -2.229200      -0.695882
C        4.679440      -2.530511      -0.613531
H        4.571355      -5.073402       1.660245
H        6.201865      -3.744772       0.319175
C        5.590081      -1.885273      -1.451812
C        2.866136      -1.356096      -1.697470
C        3.779700      -0.722901      -2.537480
C        5.142576      -0.973366      -2.404984
H        1.808276      -1.161932      -1.841545
H        3.423596      -0.032762      -3.299764
H        6.651788      -2.107417      -1.378257
H        5.853942      -0.476498      -3.062027
H        0.220176      -4.788613       0.054235
C       -0.676171      -4.123467       1.920017
C       -1.633095      -5.141704       1.906003
C       -0.752714      -3.131427       2.902946
C       -2.668774      -5.151056       2.838913
C       -1.789149      -3.139597       3.834498
H       -0.006697      -2.340999       2.942082
C       -2.749926      -4.147358       3.801247
H       -1.848129      -2.355654       4.586151
H       -3.560342      -4.151386       4.527255
H       -1.577090      -5.931681       1.161045
H       -3.414973      -5.941967       2.815137
54

C       -1.630252      -0.247103      -0.226025
C       -1.320295      -1.604875      -0.098986
C        0.153653      -1.728712       0.136138
C        0.625073      -0.310895       0.247502
C       -0.458621       0.534224      -0.007760
C       -2.940425       0.180896      -0.492662
C       -3.931033      -0.788691      -0.658325
C       -3.618083      -2.148264      -0.569298
C       -2.311816      -2.565364      -0.302069
H       -3.186524       1.236343      -0.570695
H       -4.954826      -0.483716      -0.866661
H       -4.399540      -2.890794      -0.715939
H       -2.090756      -3.623850      -0.268384
C       -0.336653       1.929400       0.090861
C        1.809323       0.225087       0.757505
C        0.890922       2.458006       0.493855
C        1.947561       1.612202       0.843387
H        2.618889      -0.413297       1.093753
H        2.881197       2.037115       1.206404
H       -1.178625       2.586912      -0.108338
H        1.011970       3.536107       0.581105
C        0.868431      -2.863545       0.233988
C        0.319686      -4.190935       0.754202
C        2.353479      -2.934329       0.157309
C        1.595461      -4.950076       1.222542
C        2.757854      -4.058612       0.847497
H        1.678907      -5.896278       0.683180
H        1.591137      -5.163592       2.294524
C        4.102424      -4.358027       1.034456
C        5.058515      -3.534209       0.439635
C        3.292891      -2.221335      -0.608580
C        4.658697      -2.499189      -0.413708
H        4.399052      -5.235747       1.605036
H        6.116335      -3.751318       0.571150
C        5.628042      -1.774678      -1.109497
C        2.927089      -1.300820      -1.597827
C        3.899230      -0.588889      -2.297509
C        5.249272      -0.809823      -2.040119
H        1.882963      -1.134141      -1.843981
H        3.598961       0.139459      -3.048228
H        6.683525      -1.977462      -0.945532
H        6.006408      -0.251057      -2.586994
H       -0.132179      -4.748024      -0.069648
C       -0.648778      -4.093101       1.935624
C       -1.659770      -5.047805       2.075160
C       -0.516688      -3.097018       2.909378
C       -2.545229      -4.989461       3.150069
C       -1.402568      -3.038079       3.983707
H        0.278463      -2.358814       2.836878
C       -2.419821      -3.981762       4.103086
H       -1.298504      -2.252619       4.728977
H       -3.111696      -3.933999       4.941471
H       -1.763960      -5.841585       1.339468
H       -3.335136      -5.731127       3.244877
54

C       -1.661035      -0.258497      -0.595824
C       -1.423036      -1.585501      -0.213638
C        0.040092      -1.719062       0.094084
C        0.527998      -0.308573       0.100356
C       -0.482317       0.517330      -0.394171
C       -2.943816       0.178363      -0.963948
C       -3.986157      -0.749126      -0.954656
C       -3.758650      -2.069686      -0.558599
C       -2.482865      -2.494731      -0.179579
H       -3.133136       1.214298      -1.232547
H       -4.989622      -0.436030      -1.236811
H       -4.587511      -2.774374      -0.538264
H       -2.350564      -3.518463       0.137384
C       -0.335927       1.914103      -0.410504
C        1.615829       0.256181       0.767115
C        0.830907       2.462354       0.126213
C        1.786856       1.641871       0.733293
H        2.333681      -0.369871       1.289485
H        2.660129       2.087920       1.204813
H       -1.125333       2.561799      -0.782324
H        0.968324       3.541856       0.129083
C        0.753742      -2.858623       0.177938
C        0.159275      -4.186795       0.639808
C        2.246336      -2.974196       0.108691
C        1.393644      -5.108775       0.806660
C        2.587504      -4.196874       0.655485
H        1.415926      -5.830915      -0.012887
H        1.400008      -5.657519       1.751650
C        3.906197      -4.542893       0.925204
C        4.915506      -3.652223       0.563411
C        3.261836      -2.183279      -0.462849
C        4.601902      -2.503644      -0.171408
H        4.143551      -5.497698       1.389315
H        5.954675      -3.900277       0.768181
C        5.640056      -1.708189      -0.659987
C        3.011725      -1.165646      -1.389990
C        4.051087      -0.382082      -1.888428
C        5.363753      -0.633270      -1.500937
H        2.009493      -0.993605      -1.768883
H        3.832884       0.420903      -2.589780
H        6.672021      -1.942171      -0.409996
H        6.174135      -0.019998      -1.890262
H       -0.497202      -4.609100      -0.123372
C       -0.567538      -4.111844       1.986578
C       -1.559024      -5.053597       2.276515
C       -0.241236      -3.152572       2.952495
C       -2.233237      -5.021341       3.495756
C       -0.915532      -3.121055       4.172416
H        0.542697      -2.422905       2.765565
C       -1.913699      -4.053160       4.444078
H       -0.659953      -2.366567       4.913203
H       -2.439172      -4.027383       5.396648
H       -1.812712      -5.818162       1.546218
H       -3.008866      -5.753976       3.707963
54

C       -1.734343      -0.302620      -0.913477
C       -1.526514      -1.481073      -0.183818
C       -0.063531      -1.560812       0.153070
C        0.382670      -0.161788      -0.058902
C       -0.569089       0.512954      -0.824681
C       -3.007521       0.048994      -1.390258
C       -4.077232      -0.802320      -1.110831
C       -3.890058      -1.939275      -0.320776
C       -2.624067      -2.270377       0.167864
H       -3.174073       0.979947      -1.925355
H       -5.075032      -0.550102      -1.465714
H       -4.744492      -2.562379      -0.064895
H       -2.524790      -3.123108       0.823951
C       -0.458959       1.892606      -1.065829
C        1.280227       0.576859       0.711473
C        0.587186       2.588086      -0.454738
C        1.426617       1.942903       0.459140
H        1.884444       0.085936       1.470680
H        2.177285       2.514248       1.001272
H       -1.207979       2.428951      -1.642934
H        0.691947       3.659083      -0.618865
C        0.651452      -2.707058       0.217039
C       -0.017434      -4.027531       0.596002
C        2.145100      -2.950004       0.040215
C        1.062698      -5.095295       0.371479
C        2.340086      -4.304994       0.293648
H        0.905848      -5.606831      -0.581283
H        1.083670      -5.840728       1.170447
C        3.594742      -4.878999       0.442114
C        4.717114      -4.074032       0.309488
C        3.292103      -2.175893      -0.280239
C        4.571892      -2.742680      -0.080107
H        3.693360      -5.937871       0.672566
H        5.708720      -4.501722       0.440506
C        5.735703      -2.006004      -0.312619
C        3.260122      -0.914456      -0.883900
C        4.418644      -0.181689      -1.131155
C        5.661367      -0.713000      -0.815131
H        2.342256      -0.507893      -1.264290
H        4.346922       0.799441      -1.596566
H        6.710426      -2.450129      -0.125548
H        6.568377      -0.143616      -1.008603
H       -0.865515      -4.255868      -0.051467
C       -0.446093      -4.086804       2.065967
C       -1.479606      -4.950531       2.440887
C        0.195977      -3.330243       3.053391
C       -1.882715      -5.039300       3.771834
C       -0.206215      -3.420307       4.384868
H        1.016970      -2.665852       2.795510
C       -1.247847      -4.271862       4.744858
H        0.296492      -2.825172       5.144172
H       -1.562042      -4.339265       5.784421
H       -1.977915      -5.559399       1.689897
H       -2.693728      -5.708396       4.051181
54

C       -1.748739      -0.452833      -1.147879
C       -1.511366      -1.333126      -0.089437
C       -0.042214      -1.306626       0.230872
C        0.325276       0.041547      -0.317719
C       -0.617623       0.398327      -1.292614
C       -3.033954      -0.294421      -1.693172
C       -4.083639      -1.028840      -1.138501
C       -3.868351      -1.838576      -0.020118
C       -2.590787      -1.970343       0.527727
H       -3.227434       0.418372      -2.490017
H       -5.089743      -0.920214      -1.539847
H       -4.708117      -2.354412       0.441587
H       -2.452522      -2.555326       1.430262
C       -0.608080       1.660997      -1.908738
C        0.982112       1.099731       0.319087
C        0.291414       2.616564      -1.439042
C        1.040682       2.355035      -0.290904
H        1.470540       0.944062       1.277791
H        1.633726       3.148949       0.158646
H       -1.347076       1.933186      -2.657722
H        0.313240       3.608930      -1.886086
C        0.654372      -2.471273       0.393204
C       -0.104593      -3.763904       0.726783
C        2.120735      -2.872549       0.147160
C        0.766814      -4.894746       0.180053
C        2.119628      -4.267876       0.066459
H        0.425081      -5.191949      -0.814427
H        0.770199      -5.773121       0.830270
C        3.258104      -5.045629      -0.084487
C        4.489968      -4.422215      -0.157200
C        3.396247      -2.243203       0.060186
C        4.562357      -3.034785      -0.084677
H        3.182586      -6.129925      -0.134859
H        5.393874      -5.016982      -0.269499
C        5.834658      -2.460952      -0.158679
C        3.603433      -0.871199       0.103687
C        4.864593      -0.285704       0.029742
C        5.991545      -1.083120      -0.097632
H        2.778124      -0.235176       0.161180
H        4.962434       0.797653       0.060349
H        6.713583      -3.092173      -0.265084
H        6.981826      -0.635558      -0.158350
H       -1.039061      -3.853257       0.175855
C       -0.362120      -3.959539       2.221469
C       -1.433316      -4.758190       2.632378
C        0.464605      -3.382103       3.191106
C       -1.686300      -4.961450       3.987638
C        0.212203      -3.586679       4.546270
H        1.315338      -2.770839       2.900519
C       -0.864625      -4.373711       4.946218
H        0.859226      -3.131272       5.292658
H       -1.061622      -4.531078       6.004763
H       -2.078164      -5.225154       1.891368
H       -2.525450      -5.580598       4.297363
54

C       -1.881923      -0.366192      -0.888402
C       -1.469080      -1.073609       0.234266
C        0.018471      -1.169361       0.232733
C        0.421059      -0.114568      -0.777990
C       -0.737704       0.204753      -1.513988
C       -3.244497      -0.135524      -1.137783
C       -4.176138      -0.635920      -0.224115
C       -3.754826      -1.298361       0.934119
C       -2.395699      -1.502864       1.181597
H       -3.574816       0.437554      -1.999565
H       -5.238258      -0.471552      -0.393945
H       -4.490763      -1.644867       1.656457
H       -2.069720      -1.983910       2.099242
C       -0.744840       1.209917      -2.495271
C        1.496818       0.778530      -0.868806
C        0.417170       1.948793      -2.699415
C        1.516279       1.756437      -1.864754
H        2.334784       0.753340      -0.203687
H        2.386040       2.403297      -1.963780
H       -1.647899       1.452696      -3.048447
H        0.438065       2.732895      -3.454396
C        0.620158      -2.362386       0.427409
C       -0.163022      -3.656162       0.625855
C        2.042405      -2.734921       0.175570
C        0.687551      -4.678902      -0.178999
C        2.062150      -4.055866      -0.230056
H        0.299967      -4.769897      -1.196737
H        0.700648      -5.668276       0.285654
C        3.238420      -4.709074      -0.580682
C        4.444634      -4.018983      -0.462293
C        3.259280      -2.092210       0.445165
C        4.460196      -2.731614       0.084926
H        3.217414      -5.741410      -0.923661
H        5.378151      -4.510973      -0.726633
C        5.687913      -2.112246       0.326085
C        3.328513      -0.894900       1.155383
C        4.555016      -0.282742       1.408309
C        5.734893      -0.880603       0.974923
H        2.417840      -0.427888       1.518575
H        4.588794       0.662115       1.947130
H        6.613813      -2.601452       0.034234
H        6.693049      -0.401871       1.170435
H       -1.131026      -3.625058       0.121615
C       -0.362133      -4.071302       2.081341
C       -1.462345      -4.863074       2.416966
C        0.533535      -3.690290       3.086338
C       -1.675479      -5.257113       3.737163
C        0.322086      -4.085430       4.405930
H        1.405805      -3.087623       2.849464
C       -0.783858      -4.866204       4.733241
H        1.023567      -3.782279       5.180996
H       -0.947497      -5.173569       5.764211
H       -2.163198      -5.174064       1.645499
H       -2.536132      -5.872487       3.988535
54

C       -1.918788      -0.042075      -0.663180
C       -1.509583      -1.031831       0.228130
C       -0.048667      -1.278037       0.045315
C        0.367238      -0.246453      -0.971446
C       -0.788389       0.431554      -1.388866
C       -3.246237       0.416757      -0.679070
C       -4.146291      -0.135382       0.235538
C       -3.722739      -1.091361       1.164658
C       -2.397138      -1.530961       1.180687
H       -3.568333       1.195897      -1.364602
H       -5.180276       0.204572       0.246500
H       -4.428620      -1.484463       1.894068
H       -2.069440      -2.236618       1.937049
C       -0.733355       1.482929      -2.317304
C        1.605241       0.140084      -1.492820
C        0.508990       1.841313      -2.838027
C        1.665819       1.175487      -2.428509
H        2.525254      -0.353900      -1.225929
H        2.628259       1.465447      -2.845282
H       -1.629396       2.017556      -2.621055
H        0.579248       2.651576      -3.561215
C        0.556919      -2.445151       0.317577
C       -0.174532      -3.759784       0.536107
C        1.989398      -2.743563       0.092798
C        0.729096      -4.750381      -0.257294
C        2.080550      -4.063448      -0.297527
H        0.353926      -4.881077      -1.274710
H        0.786512      -5.727383       0.228043
C        3.309496      -4.663679      -0.547330
C        4.471862      -3.920746      -0.327522
C        3.142074      -2.046992       0.479602
C        4.393093      -2.634739       0.222314
H        3.361983      -5.701055      -0.870040
H        5.444149      -4.373241      -0.510206
C        5.564274      -1.956573       0.563959
C        3.085650      -0.825719       1.160808
C        4.259591      -0.160646       1.509617
C        5.498099      -0.717732       1.199487
H        2.128982      -0.373823       1.407642
H        4.206278       0.797907       2.022248
H        6.533469      -2.404571       0.358663
H        6.413396      -0.195862       1.472821
H       -1.158393      -3.738953       0.060657
C       -0.328805      -4.179232       1.997611
C       -1.345795      -5.074778       2.339222
C        0.522382      -3.703228       3.000991
C       -1.518407      -5.479779       3.661347
C        0.350773      -4.110885       4.322945
H        1.328132      -3.013038       2.765329
C       -0.669506      -4.998377       4.654868
H        1.017542      -3.735892       5.096032
H       -0.803242      -5.314421       5.687569
H       -2.011993      -5.458975       1.570114
H       -2.316117      -6.173546       3.917580
54

C       -1.817060       0.135778      -0.409575
C       -1.564008      -1.132184       0.122811
C       -0.135221      -1.482606      -0.158743
C        0.373265      -0.326577      -0.968741
C       -0.651255       0.619774      -1.070680
C       -3.071027       0.751050      -0.267959
C       -4.061298       0.075237       0.446931
C       -3.799460      -1.173937       1.016979
C       -2.549313      -1.779663       0.870204
H       -3.273016       1.729994      -0.694090
H       -5.040837       0.532033       0.575442
H       -4.574332      -1.675018       1.593858
H       -2.363990      -2.726779       1.358969
C       -0.485090       1.803791      -1.806511
C        1.539777      -0.157669      -1.718235
C        0.723867       2.001549      -2.475231
C        1.719292       1.021083      -2.445690
H        2.300583      -0.927639      -1.766965
H        2.637634       1.168138      -3.010698
H       -1.279216       2.542165      -1.878857
H        0.877841       2.909335      -3.055834
C        0.504039      -2.608740       0.197749
C       -0.166334      -3.941463       0.485365
C        1.958271      -2.845065       0.029173
C        0.812330      -4.936200      -0.205761
C        2.126188      -4.183004      -0.264110
H        0.475329      -5.163828      -1.219561
H        0.906836      -5.869884       0.353905
C        3.388528      -4.733757      -0.453214
C        4.506124      -3.913760      -0.283237
C        3.068419      -2.056655       0.366675
C        4.351559      -2.593775       0.159178
H        3.500738      -5.788021      -0.697355
H        5.503465      -4.324831      -0.423670
C        5.482691      -1.825295       0.438859
C        2.944422      -0.786386       0.939846
C        4.078391      -0.028474       1.224451
C        5.346479      -0.540477       0.961286
H        1.966347      -0.373369       1.168431
H        3.969722       0.965904       1.653121
H        6.475651      -2.233932       0.268678
H        6.230276       0.054490       1.183966
H       -1.131438      -4.003485      -0.022534
C       -0.340299      -4.266782       1.969178
C       -1.331417      -5.175159       2.350307
C        0.468617      -3.691667       2.955703
C       -1.520041      -5.497059       3.693185
C        0.280156      -4.014033       4.298616
H        1.253685      -2.988585       2.690275
C       -0.714669      -4.915432       4.669041
H        0.912909      -3.560017       5.058015
H       -0.860550      -5.165646       5.717890
H       -1.963934      -5.637058       1.595772
H       -2.295995      -6.203683       3.979348
[GEOCONV]
energy
0.0
1.5463542129996597
7.840962675755719
21.849724336338056
38.252981438390535
16.26922848672315
2.327260542000502
-1.5855872097694572
max-force
0.0
0.0001634460490719048
0.0002267407684093361
0.00033746128679373904
0.00035604909781358817
0.0011333564768265959
0.00040860058535230744
7.821349263375218e-05
max-step
1000.0
1000.0
1000.0
1000.0
1000.0
1000.0
1000.0
1000.0
