  54
Step 11
  C     -1.66395280     -0.19315318     -0.05625347
  C     -1.24647234     -1.54824567     -0.01822735
  C      0.20936733     -1.60049429      0.24500443
  C      0.63157501     -0.18324179      0.38530084
  C     -0.50733093      0.65113621      0.23955557
  C     -2.97725798      0.14798587     -0.37370737
  C     -3.88666930     -0.86738869     -0.67499742
  C     -3.47385736     -2.20420254     -0.68089046
  C     -2.15798649     -2.54969810     -0.36699956
  H     -3.28778734      1.18885662     -0.40078954
  H     -4.91434781     -0.61812526     -0.92298694
  H     -4.18347726     -2.98532223     -0.93774564
  H     -1.86206504     -3.59048103     -0.40065706
  C     -0.41855813      2.03022059      0.42156156
  C      1.84799686      0.38961144      0.77275332
  C      0.81196906      2.59086018      0.76759220
  C      1.93153521      1.77223657      0.95131962
  H      2.72591267     -0.22283251      0.93689609
  H      2.88057223      2.21459184      1.24005635
  H     -1.29772442      2.65937546      0.31237151
  H      0.89730078      3.66417568      0.91085900
  C      0.97437915     -2.73111858      0.41568007
  C      0.45254316     -4.07281939      0.97342996
  C      2.42010450     -2.90206553      0.20499922
  C      1.73581139     -4.71044868      1.60419143
  C      2.86952183     -4.02438296      0.90134619
  H      1.76054178     -5.79921488      1.48737416
  H      1.75373676     -4.50862303      2.68249969
  C      4.21907731     -4.42049438      0.89614414
  C      5.12488687     -3.70693670      0.14452459
  C      3.32149292     -2.22930633     -0.69565875
  C      4.70227230     -2.63078040     -0.68313812
  H      4.53676821     -5.28042089      1.47920397
  H      6.17509190     -3.98672363      0.13596021
  C      5.62476142     -1.98004254     -1.54481987
  C      2.92330712     -1.25630942     -1.64893081
  C      3.84010636     -0.66627025     -2.49332295
  C      5.20858224     -1.01023634     -2.42764877
  H      1.87852608     -0.98652932     -1.72284242
  H      3.50377219      0.06745840     -3.22000756
  H      6.66829969     -2.28194282     -1.50841187
  H      5.92238101     -0.52621952     -3.08748244
  H      0.14796629     -4.71642892      0.13550593
  C     -0.67349359     -4.04973786      1.99509021
  C     -1.64472921     -5.05799019      1.98205402
  C     -0.70874677     -3.10585524      3.03095874
  C     -2.63251598     -5.12011638      2.96650583
  C     -1.69444498     -3.16347202      4.01460609
  H      0.03300371     -2.31378478      3.06256546
  C     -2.66134742     -4.17046031      3.98685333
  H     -1.70853476     -2.41753647      4.80434086
  H     -3.43024598     -4.21245041      4.75282166
  H     -1.62934532     -5.80277167      1.18878110
  H     -3.37864210     -5.90910372      2.93277102
