[Molden Format]
[Geometries] (XYZ)
56

C       -1.813013      -0.389220      -0.187947
C       -1.447889      -1.737393      -0.238781
C        0.003773      -1.848706       0.098335
C        0.415124      -0.441361       0.406379
C       -0.689883       0.393196       0.212789
C       -3.114524       0.023533      -0.512939
C       -4.031029      -0.946689      -0.924091
C       -3.649459      -2.287903      -1.032430
C       -2.350851      -2.690485      -0.709888
H       -3.406982       1.068679      -0.459522
H       -5.046052      -0.652539      -1.184857
H       -4.368716      -3.023626      -1.386529
H       -2.059233      -3.724289      -0.846109
C       -0.621817       1.768356       0.485809
C        1.567762       0.065268       1.008140
C        0.571560       2.281403       0.997873
C        1.649452       1.434410       1.272626
H        2.392647      -0.585410       1.279205
H        2.556165       1.842460       1.714566
H       -1.477628       2.419529       0.330302
H        0.650342       3.343674       1.221521
C        0.719984      -2.964827       0.305982
C        0.183358      -4.274251       0.912444
C        2.203839      -3.034039       0.126238
C        1.455584      -5.182698       0.886593
C        2.616225      -4.259072       0.608303
H        1.373648      -5.890442       0.058210
H        1.635378      -5.759850       1.791787
C        3.957455      -4.613286       0.679937
C        4.907252      -3.725482       0.180930
C        3.128034      -2.247355      -0.592229
C        4.495196      -2.573637      -0.496174
H        4.255092      -5.575473       1.091405
H        5.963667      -3.980366       0.230741
C        5.456722      -1.783893      -1.128696
C        2.754782      -1.210122      -1.456779
C        3.716708      -0.432872      -2.097887
C        5.068878      -0.702922      -1.914914
H        1.710754      -1.004383      -1.662853
H        3.407634       0.383393      -2.748179
H        6.512489      -2.025965      -1.034125
H        5.818647      -0.093745      -2.416197
H       -0.564109      -4.734678       0.268441
C       -0.388105      -4.158330       2.389667
C       -0.866958      -5.550877       2.889206
H       -1.626610      -5.958892       2.218218
H       -1.309882      -5.473938       3.885259
H       -0.057457      -6.276264       2.962929
C        0.669438      -3.603944       3.382639
C       -1.631558      -3.242733       2.504278
H        1.552056      -4.241535       3.445434
H        0.250878      -3.529949       4.389151
H        0.993446      -2.604158       3.084123
H       -2.414310      -3.552709       1.810747
H       -1.380111      -2.197310       2.326806
H       -2.053657      -3.287072       3.511133
56

C       -1.805440      -0.360251      -0.354840
C       -1.520985      -1.717991      -0.159017
C       -0.073350      -1.839165       0.226998
C        0.376934      -0.420940       0.366266
C       -0.661872       0.423674      -0.027132
C       -3.074789       0.072456      -0.768401
C       -4.055918      -0.890020      -1.007423
C       -3.772996      -2.247561      -0.839601
C       -2.507654      -2.669938      -0.424686
H       -3.298113       1.127782      -0.900412
H       -5.048001      -0.581087      -1.330718
H       -4.547224      -2.985506      -1.037707
H       -2.325454      -3.728674      -0.320110
C       -0.548340       1.818987       0.081615
C        1.483320       0.110031       1.027777
C        0.621739       2.345789       0.631239
C        1.619465       1.497160       1.119753
H        2.234857      -0.538525       1.463649
H        2.501642       1.919483       1.596348
H       -1.359569       2.478359      -0.215295
H        0.736055       3.423960       0.728783
C        0.662495      -2.963173       0.325233
C        0.143693      -4.298297       0.895034
C        2.151271      -3.039894       0.117257
C        1.387262      -5.225512       0.739870
C        2.552902      -4.295213       0.529772
H        1.271252      -5.830672      -0.163079
H        1.569427      -5.908552       1.567895
C        3.890558      -4.654972       0.628848
C        4.857558      -3.736048       0.230758
C        3.104226      -2.210494      -0.513288
C        4.468755      -2.542440      -0.383532
H        4.173526      -5.641461       0.989633
H        5.911829      -3.992808       0.308601
C        5.455983      -1.714599      -0.921898
C        2.772518      -1.132458      -1.343881
C        3.758674      -0.314902      -1.891807
C        5.102021      -0.587790      -1.657320
H        1.742694      -0.933325      -1.608536
H        3.474881       0.531161      -2.514206
H        6.506647      -1.963372      -0.793904
H        5.870781       0.050886      -2.087231
H       -0.637824      -4.731591       0.277244
C       -0.327236      -4.246730       2.412629
C       -0.851975      -5.640826       2.854791
H       -1.668300      -5.966543       2.205862
H       -1.234441      -5.604483       3.877561
H       -0.078715      -6.407526       2.832359
C        0.823234      -3.819500       3.364629
C       -1.501962      -3.269631       2.675927
H        1.662311      -4.516480       3.340597
H        0.471501      -3.776045       4.397637
H        1.196598      -2.827443       3.099217
H       -2.370827      -3.518948       2.067568
H       -1.220432      -2.231601       2.500122
H       -1.821050      -3.327535       3.719567
56

C       -1.818984      -0.385642      -0.545125
C       -1.580752      -1.696008      -0.104456
C       -0.134758      -1.779974       0.326492
C        0.290941      -0.352465       0.349213
C       -0.692335       0.432374      -0.250412
C       -3.074566       0.016019      -1.029955
C       -4.097962      -0.928456      -1.084876
C       -3.879997      -2.231137      -0.633902
C       -2.634182      -2.619845      -0.133806
H       -3.260065       1.042276      -1.333330
H       -5.079703      -0.641642      -1.456807
H       -4.698350      -2.948668      -0.658877
H       -2.535425      -3.630948       0.231282
C       -0.594203       1.833156      -0.269561
C        1.286896       0.256479       1.110663
C        0.494414       2.427926       0.373339
C        1.414376       1.646505       1.078081
H        1.977360      -0.341332       1.692202
H        2.218276       2.127313       1.632180
H       -1.362509       2.448119      -0.730798
H        0.593035       3.511591       0.377610
C        0.623152      -2.895357       0.367434
C        0.093322      -4.249839       0.863955
C        2.109542      -3.017355       0.078331
C        1.241450      -5.224592       0.498251
C        2.444578      -4.340206       0.328437
H        1.026579      -5.704923      -0.459793
H        1.422771      -6.011689       1.228932
C        3.752609      -4.805765       0.339371
C        4.779467      -3.911560       0.065400
C        3.134660      -2.169385      -0.417679
C        4.474133      -2.612921      -0.346673
H        3.969244      -5.848924       0.564788
H        5.813850      -4.250040       0.091031
C        5.531626      -1.785365      -0.733782
C        2.913797      -0.954318      -1.078004
C        3.963702      -0.134136      -1.485399
C        5.278162      -0.532322      -1.280772
H        1.919255      -0.651310      -1.361058
H        3.751458       0.812322      -1.979555
H        6.558366      -2.130071      -0.645113
H        6.099986       0.104360      -1.603783
H       -0.771358      -4.581498       0.299135
C       -0.220330      -4.299280       2.422809
C       -0.847695      -5.672710       2.787876
H       -1.774275      -5.834467       2.231277
H       -1.086094      -5.716645       3.853716
H       -0.178996      -6.507502       2.577762
C        1.053953      -4.087067       3.286593
C       -1.250270      -3.235033       2.889691
H        1.776821      -4.894607       3.159001
H        0.800881      -4.046401       4.349030
H        1.544998      -3.146229       3.029089
H       -2.215018      -3.368598       2.402967
H       -0.899120      -2.219117       2.708315
H       -1.422574      -3.313885       3.966281
56

C       -1.848348      -0.471593      -0.747958
C       -1.632117      -1.683481      -0.072680
C       -0.196402      -1.692115       0.399394
C        0.177151      -0.262427       0.286244
C       -0.753223       0.404590      -0.508197
C       -3.077169      -0.168410      -1.353825
C       -4.109262      -1.099492      -1.258488
C       -3.933943      -2.272191      -0.522310
C       -2.712199      -2.559990       0.091587
H       -3.241379       0.780762      -1.856598
H       -5.073515      -0.888047      -1.716796
H       -4.765593      -2.963412      -0.409335
H       -2.657125      -3.444112       0.707010
C       -0.711286       1.801160      -0.656043
C        0.979742       0.473703       1.158855
C        0.245573       2.514001       0.069154
C        1.059784       1.859118       0.998821
H        1.571014      -0.030232       1.919345
H        1.740516       2.434902       1.622433
H       -1.449686       2.331389      -1.251366
H        0.297441       3.597584      -0.024535
C        0.602088      -2.784440       0.477621
C        0.042752      -4.139359       0.926364
C        2.074571      -2.971045       0.086344
C        1.032125      -5.155695       0.330217
C        2.280825      -4.350860       0.116856
H        0.676785      -5.513449      -0.639512
H        1.210664      -6.023925       0.964482
C        3.520205      -4.952765      -0.031665
C        4.627611      -4.152379      -0.243221
C        3.192848      -2.162450      -0.287274
C        4.466095      -2.777576      -0.395595
H        3.620081      -6.034168       0.027571
H        5.611287      -4.606384      -0.345199
C        5.614994      -2.043851      -0.700064
C        3.151031      -0.804512      -0.629581
C        4.292264      -0.071129      -0.945738
C        5.535473      -0.683474      -0.956985
H        2.231051      -0.284068      -0.740944
H        4.202691       0.981513      -1.206947
H        6.581850      -2.539053      -0.756000
H        6.428802      -0.113371      -1.205347
H       -0.913321      -4.373870       0.478386
C       -0.070570      -4.266083       2.502852
C       -0.777833      -5.594959       2.877660
H       -1.764707      -5.651236       2.411817
H       -0.915474      -5.668557       3.958919
H       -0.205195      -6.467834       2.562354
C        1.313508      -4.224010       3.207376
C       -0.917707      -3.126628       3.128535
H        1.977139      -5.017291       2.860737
H        1.198268      -4.351147       4.286071
H        1.808885      -3.264887       3.036048
H       -1.927528      -3.104190       2.721714
H       -0.456091      -2.149847       2.976426
H       -1.011303      -3.269520       4.208026
56

C       -1.777040      -0.618791      -0.970969
C       -1.605007      -1.653968      -0.039599
C       -0.192446      -1.566536       0.495401
C        0.140880      -0.152042       0.170542
C       -0.719085       0.319772      -0.821907
C       -2.974832      -0.455321      -1.685436
C       -4.020432      -1.343229      -1.437667
C       -3.895661      -2.316870      -0.445158
C       -2.707341      -2.458409       0.275357
H       -3.110302       0.367308      -2.381933
H       -4.960433      -1.236391      -1.976006
H       -4.744107      -2.957935      -0.214251
H       -2.690268      -3.168458       1.090837
C       -0.723301       1.670805      -1.208722
C        0.720351       0.788446       1.025959
C        0.080557       2.562492      -0.496733
C        0.760051       2.132108       0.646054
H        1.190447       0.459963       1.951975
H        1.291047       2.854262       1.263119
H       -1.401680       2.040391      -1.972742
H        0.089589       3.617318      -0.765981
C        0.601877      -2.659434       0.670085
C        0.005607      -4.004845       1.104947
C        2.046226      -2.928012       0.204428
C        0.836916      -5.039228       0.331493
C        2.112002      -4.314169       0.033991
H        0.344771      -5.282484      -0.613623
H        1.008919      -5.968658       0.875176
C        3.243846      -5.002922      -0.371509
C        4.397204      -4.291976      -0.639218
C        3.242480      -2.201195      -0.082523
C        4.399618      -2.907881      -0.500104
H        3.222663      -6.085301      -0.480962
H        5.293901      -4.816629      -0.962202
C        5.598844      -2.252674      -0.793062
C        3.391125      -0.819052       0.014978
C        4.580194      -0.155684      -0.277994
C        5.693676      -0.873152      -0.683442
H        2.586925      -0.222067       0.315492
H        4.632811       0.927933      -0.190187
H        6.469499      -2.820684      -1.112096
H        6.626089      -0.361778      -0.915422
H       -0.999232      -4.167895       0.750801
C        0.026755      -4.204819       2.669825
C       -0.738185      -5.499597       3.048683
H       -1.770953      -5.457481       2.694723
H       -0.761255      -5.630690       4.133354
H       -0.270584      -6.388597       2.623338
C        1.465942      -4.297143       3.242570
C       -0.685780      -3.034023       3.395242
H        2.011979      -5.147079       2.829860
H        1.441901      -4.421259       4.327707
H        2.032137      -3.388463       3.026586
H       -1.732237      -2.959539       3.097470
H       -0.199503      -2.078622       3.188699
H       -0.663026      -3.180606       4.477772
56

C       -1.888874      -0.738463      -0.919948
C       -1.655414      -1.476563       0.241248
C       -0.191880      -1.393564       0.573695
C        0.239533      -0.187453      -0.231073
C       -0.739015       0.044455      -1.211568
C       -3.166775      -0.662666      -1.497239
C       -4.214459      -1.345000      -0.878520
C       -4.002065      -2.028742       0.320138
C       -2.730874      -2.076690       0.897610
H       -3.354041      -0.060598      -2.382856
H       -5.215271      -1.298182      -1.303560
H       -4.838136      -2.515573       0.817245
H       -2.602312      -2.563710       1.852674
C       -0.677499       1.143711      -2.085040
C        1.096189       0.880165       0.063293
C        0.343546       2.072572      -1.910857
C        1.195122       1.963424      -0.813105
H        1.680580       0.919954       0.963777
H        1.914951       2.754178      -0.612072
H       -1.444904       1.315763      -2.834739
H        0.414729       2.934797      -2.571548
C        0.527131      -2.522955       0.818867
C       -0.091035      -3.882194       1.160252
C        1.909112      -2.799368       0.308522
C        0.605511      -4.798654       0.106066
C        1.896400      -4.081952      -0.206847
H       -0.006140      -4.850389      -0.798890
H        0.784961      -5.815850       0.456239
C        2.993261      -4.636084      -0.857216
C        4.151950      -3.871191      -0.981344
C        3.120877      -2.096695       0.328609
C        4.229171      -2.619972      -0.362094
H        2.944497      -5.644663      -1.261798
H        5.019044      -4.281368      -1.494498
C        5.434803      -1.916818      -0.393507
C        3.302926      -0.962344       1.110320
C        4.510910      -0.266859       1.098967
C        5.571602      -0.731565       0.325295
H        2.508348      -0.653233       1.775231
H        4.631924       0.627942       1.705849
H        6.283396      -2.310433      -0.948083
H        6.515953      -0.192173       0.315487
H       -1.144093      -3.950763       0.911066
C        0.115726      -4.321698       2.660198
C       -0.661775      -5.633331       2.934346
H       -1.721015      -5.513970       2.694992
H       -0.584250      -5.916407       3.986634
H       -0.272021      -6.462306       2.342014
C        1.608214      -4.559518       3.015984
C       -0.416442      -3.251293       3.645667
H        2.053281      -5.340319       2.396519
H        1.708584      -4.873611       4.057153
H        2.194316      -3.645992       2.892508
H       -1.486125      -3.095236       3.529823
H        0.093896      -2.295480       3.508070
H       -0.251891      -3.565863       4.679067
56

C       -2.126394      -0.466971      -0.609011
C       -1.706975      -1.270923       0.450460
C       -0.205303      -1.317227       0.470866
C        0.170220      -0.244200      -0.527765
C       -0.994308       0.151562      -1.202589
C       -3.488606      -0.248592      -0.875087
C       -4.430023      -0.850837      -0.040217
C       -4.016934      -1.619086       1.051014
C       -2.658564      -1.816496       1.309860
H       -3.810573       0.391332      -1.691939
H       -5.491761      -0.696390      -0.222450
H       -4.761488      -2.057168       1.712644
H       -2.362494      -2.385800       2.173168
C       -0.984332       1.155040      -2.185861
C        1.345667       0.471165      -0.770453
C        0.223905       1.785021      -2.476345
C        1.374497       1.455639      -1.760500
H        2.247465       0.297061      -0.222471
H        2.303053       1.985223      -1.964145
H       -1.895306       1.458841      -2.693661
H        0.261121       2.566568      -3.232578
C        0.503651      -2.438372       0.736713
C       -0.108685      -3.816817       0.985139
C        1.882167      -2.664953       0.243215
C        0.555964      -4.598092      -0.202173
C        1.874677      -3.876564      -0.413266
H       -0.056598      -4.517835      -1.103124
H        0.711752      -5.656108       0.012857
C        3.011341      -4.377664      -1.037044
C        4.203754      -3.658401      -0.917222
C        3.100330      -2.040428       0.531905
C        4.261688      -2.524464      -0.095429
H        2.980508      -5.325550      -1.569810
H        5.110016      -4.033201      -1.388091
C        5.492502      -1.912777       0.151342
C        3.214092      -1.033905       1.495996
C        4.446665      -0.435483       1.748462
C        5.581518      -0.860150       1.061205
H        2.336666      -0.706014       2.044477
H        4.522397       0.365291       2.481951
H        6.390084      -2.272308      -0.345779
H        6.543044      -0.388628       1.258078
H       -1.182400      -3.830152       0.805666
C        0.195324      -4.446222       2.407495
C       -0.617784      -5.755064       2.573472
H       -1.689295      -5.558839       2.487072
H       -0.439328      -6.201383       3.554843
H       -0.348146      -6.495973       1.819632
C        1.694227      -4.789074       2.631557
C       -0.211548      -3.500186       3.566004
H        2.059243      -5.516774       1.904769
H        1.845007      -5.224597       3.622547
H        2.319237      -3.897108       2.575571
H       -1.286591      -3.350793       3.610841
H        0.278340      -2.528200       3.476337
H        0.077456      -3.927766       4.528868
56

C       -2.143339      -0.218347      -0.352717
C       -1.732004      -1.343474       0.366523
C       -0.243434      -1.511158       0.194433
C        0.136807      -0.349436      -0.698934
C       -1.024176       0.377929      -0.990830
C       -3.481551       0.208362      -0.362571
C       -4.413721      -0.517890       0.376720
C       -4.012601      -1.632609       1.114508
C       -2.677235      -2.042672       1.121497
H       -3.792227       1.085476      -0.923520
H       -5.457107      -0.208342       0.386522
H       -4.748330      -2.184271       1.696268
H       -2.411718      -2.901902       1.711410
C       -1.001997       1.533310      -1.789241
C        1.345255       0.076582      -1.261578
C        0.216985       1.948899      -2.319973
C        1.377862       1.220263      -2.062691
H        2.267521      -0.459925      -1.132426
H        2.321961       1.543102      -2.497228
H       -1.908307       2.095142      -1.997927
H        0.261860       2.837489      -2.946676
C        0.485374      -2.607568       0.497782
C       -0.056491      -3.996027       0.820303
C        1.902408      -2.786318       0.112059
C        0.722406      -4.824165      -0.258690
C        2.020732      -4.053953      -0.417766
H        0.179359      -4.821628      -1.206940
H        0.891987      -5.860745       0.037061
C        3.248517      -4.557845      -0.832746
C        4.388490      -3.772695      -0.639700
C        3.048621      -2.069012       0.471654
C        4.297319      -2.554129       0.046810
H        3.322947      -5.557867      -1.254384
H        5.361281      -4.149279      -0.948296
C        5.457492      -1.841363       0.353968
C        2.986133      -0.922296       1.269257
C        4.150013      -0.222040       1.580232
C        5.382603      -0.674357       1.113523
H        2.027895      -0.560411       1.633998
H        4.094984       0.680732       2.186002
H        6.426136      -2.205510       0.020309
H        6.289511      -0.123901       1.356767
H       -1.113985      -4.083225       0.581583
C        0.208914      -4.487096       2.305891
C       -0.597076      -5.786244       2.554512
H       -1.661772      -5.623593       2.371665
H       -0.482558      -6.123537       3.587584
H       -0.260722      -6.593890       1.901824
C        1.700588      -4.795595       2.618476
C       -0.242176      -3.444994       3.363982
H        2.109140      -5.564710       1.961313
H        1.810042      -5.163484       3.641364
H        2.318114      -3.900329       2.533919
H       -1.321620      -3.319997       3.387694
H        0.221944      -2.472208       3.187411
H        0.047087      -3.768036       4.367031
56

C       -1.983026      -0.117293      -0.072350
C       -1.717236      -1.446572       0.280521
C       -0.270093      -1.727721      -0.024136
C        0.176009      -0.502227      -0.769334
C       -0.843177       0.450483      -0.707778
C       -3.247710       0.460138       0.124107
C       -4.253552      -0.324857       0.686435
C       -4.005442      -1.657540       1.021110
C       -2.746049      -2.226374       0.815840
H       -3.451631       1.487510      -0.164591
H       -5.243155       0.098513       0.848609
H       -4.805863      -2.261855       1.443102
H       -2.609619      -3.264212       1.073289
C       -0.716334       1.703637      -1.328845
C        1.288301      -0.261240      -1.579146
C        0.448829       1.968886      -2.049598
C        1.432157       0.986323      -2.190672
H        2.033556      -1.026760      -1.760279
H        2.311415       1.187430      -2.799235
H       -1.511720       2.442500      -1.281723
H        0.571820       2.930679      -2.544027
C        0.474926      -2.791106       0.340286
C       -0.021172      -4.174051       0.744629
C        1.923869      -2.908475       0.046829
C        0.907643      -5.058197      -0.155358
C        2.156826      -4.216010      -0.324227
H        0.445917      -5.212926      -1.133644
H        1.128508      -6.035013       0.276911
C        3.433928      -4.671047      -0.630294
C        4.504400      -3.783029      -0.503743
C        3.001382      -2.061699       0.343191
C        4.297454      -2.498433       0.015516
H        3.597132      -5.704970      -0.926634
H        5.513156      -4.117760      -0.735865
C        5.392641      -1.666227       0.252523
C        2.834671      -0.831429       0.987330
C        3.933634      -0.009436       1.228292
C        5.209440      -0.419871       0.849002
H        1.847208      -0.501509       1.298800
H        3.792897       0.955320       1.712114
H        6.395379      -1.995078      -0.009193
H        6.065349       0.225174       1.037882
H       -1.037080      -4.352308       0.403711
C        0.096915      -4.489200       2.290228
C       -0.574396      -5.854027       2.586531
H       -1.615082      -5.855241       2.253903
H       -0.565328      -6.065395       3.658646
H       -0.057332      -6.673669       2.084862
C        1.562377      -4.557697       2.800166
C       -0.627499      -3.424403       3.152488
H        2.140889      -5.321846       2.278733
H        1.588148      -4.806150       3.863701
H        2.067221      -3.597447       2.679983
H       -1.707112      -3.462405       3.013816
H       -0.277678      -2.416344       2.919456
H       -0.442572      -3.598333       4.215149
[GEOCONV]
energy
0.0
2.100817303188535
8.733849387838774
19.829169340588408
28.207516321105416
12.230743718261436
0.01282228501959537
-6.877335795524431
-10.347150443083933
max-force
0.0
0.0011612543690397172
0.003079611414991075
0.001220030816586049
0.0004999221977609936
0.0009815025133237485
0.0017195712393284976
0.0003956510833512426
9.195274082800216e-05
max-step
1000.0
1000.0
1000.0
1000.0
1000.0
1000.0
1000.0
1000.0
1000.0
