  58
Step 15
  C     -1.54554740     -0.02667199     -0.03560635
  C     -1.07056136     -1.36194363      0.04062869
  C      0.38995977     -1.34269413      0.28361868
  C      0.74921628      0.08872990      0.38010053
  C     -0.42402845      0.87302827      0.23245634
  C     -2.87305216      0.24597730     -0.36194311
  C     -3.73698606     -0.81578793     -0.63694290
  C     -3.26604528     -2.13356338     -0.61167547
  C     -1.93606514     -2.41143573     -0.28931269
  H     -3.22890830      1.27105442     -0.41840730
  H     -4.77426998     -0.61815612     -0.89113595
  H     -3.93953654     -2.95068636     -0.85375618
  H     -1.58597223     -3.43795961     -0.31082229
  C     -0.38991628      2.25567231      0.40442106
  C      1.93940188      0.70755754      0.76862123
  C      0.81825052      2.86514517      0.74769289
  C      1.96913260      2.09290161      0.94001001
  H      2.83418347      0.12190072      0.94593842
  H      2.89909543      2.57533627      1.22501523
  H     -1.29304296      2.85007634      0.29470842
  H      0.86102558      3.94162903      0.88596633
  C      1.20996968     -2.43493224      0.43101417
  C      0.77816878     -3.75949728      1.09291179
  C      2.63793956     -2.58007572      0.07649802
  C      2.12321218     -4.32218217      1.63998340
  C      3.16538111     -3.69478229      0.76186282
  H      2.15736054     -5.41678429      1.62803918
  H      2.24284758     -4.01119783      2.68747507
  C      4.46793196     -4.12969916      0.54933040
  C      5.25073957     -3.48483824     -0.39904790
  C      3.41099355     -1.93733127     -0.93402051
  C      4.71797481     -2.43127758     -1.15412552
  H      4.86347679     -4.98092726      1.09649481
  H      6.26114654     -3.81034075     -0.62247936
  H      0.41765040     -4.45764133      0.32104888
  C     -0.25495594     -3.66486477      2.22300999
  H      0.06948248     -2.93436765      2.97122806
  H     -0.34246134     -4.63832415      2.71815743
  H     -1.24762236     -3.37226432      1.88420790
  O      5.53403234     -1.95979102     -2.14020356
  H      5.08963933     -1.24480038     -2.61880390
  C      2.87060080     -0.92574262     -1.89569355
  C      3.48964131      0.36083057     -2.08166713
  C      1.79662810     -1.27175144     -2.70061818
  C      1.28629733     -0.39362881     -3.67933890
  C      1.86600604      0.83820133     -3.87500141
  C      2.97575239      1.24374680     -3.09155289
  C      4.59458233      0.81076454     -1.30063236
  C      5.16617760      2.04399771     -1.51530559
  C      4.66272681      2.90486687     -2.51937427
  C      3.59013074      2.51137717     -3.28394995
  H      1.33662680     -2.24596476     -2.57249817
  H      0.43899769     -0.70404210     -4.28308372
  H      1.48424259      1.51696353     -4.63281743
  H      4.98046854      0.16657671     -0.51826499
  H      6.00745003      2.36149751     -0.90629869
  H      5.12280462      3.87538684     -2.67969350
  H      3.19058871      3.16823714     -4.05232097
