  56
Step 12
  C     -1.91888322     -0.38788239     -0.27289310
  C     -1.47354349     -1.73639972     -0.25243066
  C     -0.05368948     -1.77083369      0.17148877
  C      0.30120031     -0.36116150      0.44976811
  C     -0.83343910      0.45950716      0.21262936
  C     -3.19503344     -0.05412011     -0.72584096
  C     -4.04222077     -1.06577635     -1.17790865
  C     -3.60082838     -2.39450872     -1.19804603
  C     -2.32257893     -2.73239866     -0.75192311
  H     -3.52227440      0.98196595     -0.73738623
  H     -5.04005048     -0.82148035     -1.53017811
  H     -4.25838821     -3.17459409     -1.57082692
  H     -2.00276971     -3.76634073     -0.80945410
  C     -0.81044867      1.82257916      0.50649627
  C      1.43135437      0.20244104      1.05748517
  C      0.34214757      2.37782158      1.06339874
  C      1.44824894      1.56720077      1.34735696
  H      2.29230461     -0.40761946      1.30455839
  H      2.33122712      2.00303995      1.80583659
  H     -1.68555115      2.44099873      0.32571908
  H      0.37411700      3.43782437      1.29786441
  C      0.72608336     -2.90104999      0.35880941
  C      0.17294116     -4.21519402      0.96105952
  C      2.16468969     -3.07659785      0.13855382
  C      1.33577974     -5.22379951      0.80439017
  C      2.53552344     -4.37596591      0.50430851
  H      1.16268815     -5.90103374     -0.04344940
  H      1.48082236     -5.86591230      1.67656991
  C      3.87072490     -4.81622925      0.48271910
  C      4.85231209     -3.96571235      0.02944745
  C      3.14738314     -2.25566339     -0.53717723
  C      4.51518351     -2.70224201     -0.52879676
  H      4.11639471     -5.81856962      0.82242606
  H      5.89482595     -4.27272570      0.02979447
  C      5.51556562     -1.90815668     -1.14895987
  C      2.84652608     -1.09631628     -1.29563871
  C      3.83668489     -0.36929827     -1.92531918
  C      5.18997046     -0.75522642     -1.82637390
  H      1.81731185     -0.78965930     -1.40720993
  H      3.56599992      0.50558680     -2.50900733
  H      6.54647252     -2.25001429     -1.10594030
  H      5.96251084     -0.16380145     -2.30855478
  H     -0.70727789     -4.56854831      0.42017477
  C     -0.27613812     -4.08922255      2.48370219
  C     -0.83589318     -5.45997706      2.92787077
  H     -1.68916100     -5.75396795      2.30572296
  H     -1.18674481     -5.40403324      3.96384807
  H     -0.09413651     -6.26183749      2.88018149
  C      0.90541485     -3.69133602      3.39029197
  C     -1.40430023     -3.06102519      2.69165350
  H      1.73251389     -4.40667200      3.34783198
  H      0.57207416     -3.64006582      4.43250384
  H      1.29839729     -2.70673961      3.11959242
  H     -2.26978505     -3.26955530      2.05720060
  H     -1.07964558     -2.03804804      2.49442508
  H     -1.73847269     -3.10244284      3.73465535
