[Molden Format]
[Geometries] (XYZ)
58

C       -1.363539       0.024458      -0.091312
C       -1.009740      -1.325342      -0.007747
C        0.455220      -1.407103       0.260779
C        0.894632       0.013394       0.370875
C       -0.215522       0.834299       0.157754
C       -2.671292       0.411936      -0.423258
C       -3.604927      -0.588202      -0.704995
C       -3.232418      -1.936353      -0.690372
C       -1.926800      -2.312334      -0.366070
H       -2.952742       1.460059      -0.479274
H       -4.625188      -0.314295      -0.966983
H       -3.962963      -2.699530      -0.950638
H       -1.637112      -3.357377      -0.410823
C       -0.117027       2.230035       0.269996
C        2.090537       0.559777       0.831071
C        1.112990       2.776348       0.643726
C        2.199971       1.948069       0.940583
H        2.925873      -0.075982       1.107379
H        3.139269       2.388756       1.267483
H       -0.974848       2.873423       0.094914
H        1.217610       3.855352       0.737911
C        1.199437      -2.508656       0.413082
C        0.750498      -3.842658       0.999741
C        2.662586      -2.566751       0.137760
C        2.087110      -4.397558       1.574390
C        3.163376      -3.666893       0.805183
H        2.156034      -5.482895       1.471481
H        2.186525      -4.146348       2.633558
C        4.484774      -4.068070       0.675165
C        5.302102      -3.377320      -0.216026
C        3.448500      -1.906010      -0.846669
C        4.791710      -2.342243      -0.999209
H        4.861748      -4.928754       1.223863
H        6.333334      -3.688245      -0.366633
H        0.418784      -4.503039       0.194796
C       -0.289049      -3.783201       2.147885
H        0.032319      -3.076860       2.917392
H       -0.389591      -4.766585       2.613042
H       -1.278070      -3.481241       1.813751
O        5.618235      -1.836620      -1.958166
H        5.144240      -1.157287      -2.470992
C        2.854545      -0.938008      -1.841401
C        3.351236       0.375983      -2.062890
C        1.768282      -1.386948      -2.620851
C        1.180177      -0.560421      -3.571969
C        1.669521       0.723539      -3.780924
C        2.749278       1.190714      -3.035811
C        4.424082       0.892167      -1.321107
C        4.897690       2.181699      -1.557149
C        4.301184       2.976012      -2.530227
C        3.226501       2.482013      -3.265319
H        1.373572      -2.390956      -2.480228
H        0.333105      -0.922863      -4.152903
H        1.204348       1.364985      -4.526193
H        4.892472       0.302067      -0.538786
H        5.730940       2.569973      -0.973911
H        4.669290       3.984591      -2.711513
H        2.756155       3.108807      -4.019164
58

C       -1.520532      -0.120024      -0.320518
C       -1.154293      -1.415590       0.064403
C        0.336421      -1.442505       0.239751
C        0.737109      -0.015709       0.087181
C       -0.382219       0.733978      -0.277162
C       -2.850863       0.210503      -0.617523
C       -3.810132      -0.801768      -0.565915
C       -3.445079      -2.108018      -0.228156
C       -2.119694      -2.425206       0.077264
H       -3.137174       1.225063      -0.884804
H       -4.851513      -0.572850      -0.790943
H       -4.203254      -2.887802      -0.208856
H       -1.873052      -3.453647       0.305911
C       -0.337268       2.136503      -0.337196
C        1.845267       0.639123       0.616628
C        0.841008       2.775193       0.052016
C        1.910817       2.032559       0.556595
H        2.651763       0.071899       1.066012
H        2.795809       2.549125       0.919478
H       -1.209563       2.719409      -0.621376
H        0.905106       3.859600       0.021581
C        1.127566      -2.516088       0.406904
C        0.669299      -3.813821       1.062183
C        2.595537      -2.596307       0.097734
C        1.983782      -4.599614       1.304386
C        3.073839      -3.751146       0.695090
H        1.941035      -5.566624       0.797955
H        2.184229      -4.776293       2.365308
C        4.398746      -4.147211       0.606278
C        5.264531      -3.395783      -0.175813
C        3.444899      -1.871007      -0.795412
C        4.797241      -2.305286      -0.904887
H        4.740288      -5.059410       1.093372
H        6.299686      -3.704265      -0.298572
H        0.054866      -4.403947       0.380750
C       -0.025203      -3.596317       2.432052
H        0.666790      -3.142355       3.146225
H       -0.362456      -4.550204       2.839730
H       -0.896341      -2.940760       2.364549
O        5.677962      -1.757069      -1.791277
H        5.212256      -1.112703      -2.353984
C        2.944065      -0.832530      -1.773132
C        3.528980       0.453910      -1.930564
C        1.913718      -1.211720      -2.660297
C        1.471547      -0.352237      -3.660345
C        2.048217       0.901563      -3.806272
C        3.066227       1.307748      -2.945694
C        4.537828       0.911863      -1.069088
C        5.093197       2.178512      -1.236636
C        4.644160       3.007312      -2.261204
C        3.626864       2.576238      -3.108913
H        1.458947      -2.197578      -2.582153
H        0.673095      -0.667631      -4.331505
H        1.694234       1.570307      -4.587709
H        4.887747       0.293985      -0.244836
H        5.879713       2.519568      -0.566096
H        5.085787       3.992130      -2.395401
H        3.277424       3.230441      -3.903051
58

C       -1.816150      -0.521691      -0.588955
C       -1.311946      -1.499648       0.280950
C        0.191844      -1.403379       0.250410
C        0.417828      -0.079441      -0.374362
C       -0.766788       0.365196      -0.962339
C       -3.194273      -0.372226      -0.809176
C       -4.068172      -1.235488      -0.149400
C       -3.578756      -2.184075       0.750803
C       -2.207504      -2.311300       0.985445
H       -3.582499       0.412791      -1.453014
H       -5.141652      -1.139639      -0.302379
H       -4.277129      -2.821244       1.288243
H       -1.882336      -3.032419       1.723499
C       -0.892913       1.678863      -1.448108
C        1.350355       0.868231       0.026200
C        0.160673       2.567984      -1.226018
C        1.254392       2.177847      -0.449135
H        2.146327       0.580176       0.703638
H        2.026761       2.903247      -0.195174
H       -1.819091       2.032453      -1.891283
H        0.084526       3.596900      -1.574148
C        1.063388      -2.414785       0.451442
C        0.677203      -3.623318       1.292727
C        2.473641      -2.612754      -0.086426
C        1.802907      -4.644384       1.072216
C        2.878246      -3.868332       0.363905
H        1.454766      -5.442322       0.412622
H        2.161120      -5.094604       2.002588
C        4.128217      -4.411899       0.113834
C        5.016992      -3.701769      -0.672665
C        3.365398      -1.906551      -0.964139
C        4.636344      -2.489975      -1.234475
H        4.394377      -5.395446       0.497061
H        5.995554      -4.114709      -0.908780
H       -0.249782      -4.091887       0.962840
C        0.616943      -3.244899       2.792897
H        1.611094      -2.990203       3.168625
H        0.225544      -4.076058       3.382640
H       -0.027572      -2.378215       2.956373
O        5.531997      -1.923660      -2.095168
H        5.120994      -1.154922      -2.529370
C        3.068325      -0.666814      -1.761623
C        3.803309       0.538048      -1.596360
C        2.229404      -0.792616      -2.887885
C        2.067067       0.262031      -3.780480
C        2.765932       1.449382      -3.594973
C        3.634196       1.588664      -2.513716
C        4.689540       0.705662      -0.522256
C        5.393072       1.898691      -0.367188
C        5.220344       2.935110      -1.281361
C        4.341062       2.781787      -2.351206
H        1.699386      -1.726024      -3.067267
H        1.398914       0.152407      -4.634017
H        2.631959       2.267861      -4.297445
H        4.828029      -0.087466       0.209706
H        6.078542       2.019873       0.470378
H        5.775809       3.863541      -1.161390
H        4.213206       3.592922      -3.063314
58

C       -2.130334      -0.830229      -0.386109
C       -1.262279      -1.202287       0.644335
C        0.148222      -1.091084       0.132344
C       -0.029336      -0.188293      -1.041921
C       -1.377678      -0.201412      -1.419041
C       -3.524329      -0.874069      -0.220522
C       -4.031597      -1.291538       1.010719
C       -3.168798      -1.594154       2.067640
C       -1.784383      -1.529843       1.898854
H       -4.199057      -0.557209      -1.012997
H       -5.108611      -1.335244       1.163757
H       -3.581122      -1.868056       3.037086
H       -1.135547      -1.723759       2.746005
C       -1.870866       0.637768      -2.429904
C        0.727190       0.912662      -1.421286
C       -1.006783       1.582448      -2.980019
C        0.266777       1.757603      -2.435059
H        1.640781       1.150204      -0.893641
H        0.890751       2.583702      -2.772819
H       -2.920833       0.629413      -2.712640
H       -1.363821       2.262694      -3.750563
C        1.094609      -2.028024       0.392513
C        0.901243      -3.048367       1.514411
C        2.277800      -2.494222      -0.449639
C        1.593885      -4.320533       1.009675
C        2.507036      -3.820449      -0.071413
H        0.863382      -5.009967       0.580520
H        2.143823      -4.837918       1.799574
C        3.498984      -4.625106      -0.610602
C        4.337112      -4.090772      -1.572980
C        3.186729      -1.930848      -1.404539
C        4.194048      -2.766916      -1.958019
H        3.619759      -5.654499      -0.279085
H        5.126655      -4.692295      -2.017889
H       -0.132955      -3.332602       1.679433
C        1.546992      -2.550609       2.828473
H        2.635355      -2.511766       2.733327
H        1.297511      -3.216640       3.655776
H        1.201335      -1.545535       3.079005
O        5.088321      -2.304218      -2.879661
H        4.856206      -1.384593      -3.109502
C        3.286192      -0.512756      -1.862160
C        4.059784       0.439626      -1.150607
C        2.870191      -0.209677      -3.174586
C        3.160677       1.031299      -3.738799
C        3.877226       1.981300      -3.017061
C        4.331905       1.687390      -1.732487
C        4.558410       0.157005       0.126903
C        5.301505       1.111778       0.819464
C        5.560205       2.351503       0.240695
C        5.076055       2.638990      -1.033223
H        2.328507      -0.947811      -3.763192
H        2.819681       1.255130      -4.748941
H        4.092388       2.950257      -3.463741
H        4.366206      -0.802825       0.599067
H        5.677685       0.888726       1.816455
H        6.139614       3.094777       0.785201
H        5.286551       3.607361      -1.482543
58

C       -1.964539      -0.352573      -0.237725
C       -0.862913      -0.655513       0.558111
C        0.290026      -1.038039      -0.316253
C       -0.231204      -0.775511      -1.705938
C       -1.585963      -0.420443      -1.606511
C       -3.179961       0.064701       0.327506
C       -3.256130       0.177713       1.716676
C       -2.135478      -0.071521       2.513850
C       -0.925927      -0.467122       1.937745
H       -4.036458       0.315698      -0.291494
H       -4.188164       0.496776       2.180533
H       -2.200611       0.061887       3.592075
H       -0.055149      -0.610262       2.561989
C       -2.338555      -0.059270      -2.734152
C        0.381592      -0.737319      -2.955768
C       -1.713637      -0.062232      -3.979729
C       -0.360820      -0.393099      -4.088602
H        1.415784      -0.985975      -3.071247
H        0.118964      -0.378404      -5.064764
H       -3.381661       0.237322      -2.647931
H       -2.276872       0.206735      -4.869766
C        1.230426      -1.936444       0.026268
C        1.070733      -2.878867       1.207611
C        2.306610      -2.469299      -0.851744
C        1.507977      -4.232948       0.572459
C        2.415116      -3.819352      -0.573231
H        0.645240      -4.784404       0.187263
H        2.038858      -4.863971       1.289444
C        3.329903      -4.633381      -1.227280
C        4.219597      -4.037770      -2.120932
C        3.292866      -1.822862      -1.649518
C        4.232993      -2.654922      -2.302501
H        3.381762      -5.699127      -1.012474
H        4.962856      -4.642326      -2.634912
H        0.031091      -2.970842       1.531028
C        1.978214      -2.534487       2.411099
H        3.029237      -2.690232       2.162151
H        1.739449      -3.179045       3.260981
H        1.866702      -1.496919       2.720281
O        5.218972      -2.133946      -3.082993
H        5.131474      -1.163506      -3.091085
C        3.478476      -0.322759      -1.692584
C        3.850616       0.430688      -0.543570
C        3.439169       0.338747      -2.938970
C        3.658554       1.712045      -3.027046
C        3.951605       2.451728      -1.885363
C        4.063185       1.814083      -0.652165
C        4.041278      -0.179599       0.701761
C        4.388452       0.575195       1.822733
C        4.570744       1.949498       1.709307
C        4.411175       2.567307       0.472003
H        3.230002      -0.210613      -3.855324
H        3.598638       2.207221      -3.995235
H        4.112718       3.526126      -1.961485
H        3.936842      -1.249414       0.814047
H        4.520572       0.087107       2.788094
H        4.844514       2.538797       2.583658
H        4.570021       3.640453       0.383664
58

C       -1.309716       0.242204      -0.111527
C       -0.629263      -0.731837       0.627844
C        0.367140      -1.385377      -0.278758
C        0.080781      -0.800203      -1.623403
C       -0.890123       0.192587      -1.473366
C       -2.284491       1.059745       0.481576
C       -2.547269       0.893627       1.842408
C       -1.854719      -0.063834       2.589240
C       -0.888711      -0.877115       1.991895
H       -2.826259       1.804045      -0.095877
H       -3.296491       1.516773       2.327006
H       -2.066433      -0.172864       3.650882
H       -0.359154      -1.595128       2.602765
C       -1.408586       0.879551      -2.582489
C        0.426121      -1.239141      -2.901489
C       -0.967326       0.507713      -3.854072
C       -0.077537      -0.559012      -4.012976
H        1.067652      -2.102236      -3.045053
H        0.210643      -0.876207      -5.012841
H       -2.161430       1.654340      -2.467286
H       -1.358383       1.018556      -4.731798
C        1.293221      -2.299750       0.045186
C        1.205823      -3.269786       1.208225
C        2.390032      -2.735490      -0.854258
C        1.753812      -4.571893       0.553549
C        2.629494      -4.067506      -0.579443
H        0.933582      -5.166295       0.143956
H        2.314149      -5.186494       1.262227
C        3.649460      -4.768444      -1.207431
C        4.475700      -4.080977      -2.096565
C        3.303412      -1.982636      -1.640236
C        4.330063      -2.706460      -2.295587
H        3.819851      -5.820186      -0.986651
H        5.289188      -4.599806      -2.598210
H        0.174786      -3.431810       1.528383
C        2.089644      -2.850590       2.405870
H        3.149658      -2.908729       2.149481
H        1.913272      -3.512954       3.256233
H        1.874505      -1.826761       2.717035
O        5.251004      -2.083500      -3.082658
H        5.085699      -1.122721      -3.056156
C        3.253476      -0.476923      -1.754897
C        3.320227       0.388477      -0.632211
C        3.142707       0.098898      -3.038734
C        3.019308       1.475880      -3.196588
C        3.019212       2.310530      -2.085137
C        3.178167       1.774134      -0.809488
C        3.562034      -0.104824       0.655407
C        3.598130       0.754547       1.752080
C        3.410731       2.121747       1.572216
C        3.210710       2.631792       0.291704
H        3.097662      -0.534903      -3.922483
H        2.896523       1.897333      -4.193346
H        2.906267       3.384532      -2.215849
H        3.743248      -1.161214       0.813757
H        3.776692       0.356376       2.749257
H        3.435603       2.792719       2.429333
H        3.085464       3.703007       0.153393
[GEOCONV]
energy
0.0
2.801876890233899
17.308359367464803
25.174117679305326
6.459418912421157
-3.8839409062082098
max-force
0.0
0.0014258247041430863
0.0013010764472699988
0.0008120420314478503
0.0015606358918240381
7.832497750083921e-05
max-step
1000.0
1000.0
1000.0
1000.0
1000.0
1000.0
