Process 0 of 1 is on gollum146.lsa.umich.edu - thread support 0
initial socket setup ...start
initial socket setup ...done 
now start server 0 ... 
                  Welcome to Q-Chem
     A Quantum Leap Into The Future Of Chemistry


 Q-Chem 5.2 (devel), Q-Chem, Inc., Pleasanton, CA (2019)

 Yihan Shao,  Zhengting Gan,  E. Epifanovsky,  A. T. B. Gilbert,  M. Wormit,  
 J. Kussmann,  A. W. Lange,  A. Behn,  Jia Deng,  Xintian Feng,  D. Ghosh,  
 M. Goldey,  P. R. Horn,  L. D. Jacobson,  I. Kaliman,  T. Kus,  A. Landau,  
 Jie Liu,  E. I. Proynov,  R. M. Richard,  R. P. Steele,  E. J. Sundstrom,  
 H. L. Woodcock III,  P. M. Zimmerman,  D. Zuev,  B. Albrecht,  E. Alguire,  
 S. A. Baeppler,  D. Barton,  Z. Benda,  Y. A. Bernard,  E. J. Berquist,  
 K. B. Bravaya,  H. Burton,  D. Casanova,  Chun-Min Chang,  Yunqing Chen,  
 A. Chien,  K. D. Closser,  M. P. Coons,  S. Coriani,  S. Dasgupta,  
 A. L. Dempwolff,  M. Diedenhofen,  Hainam Do,  R. G. Edgar,  Po-Tung Fang,  
 S. Faraji,  S. Fatehi,  Qingguo Feng,  K. D. Fenk,  J. Fosso-Tande,  
 J. Gayvert,  Qinghui Ge,  A. Ghysels,  G. Gidofalvi,  J. Gomes,  
 J. Gonthier,  A. Gunina,  D. Hait,  M. W. D. Hanson-Heine,  
 P. H. P. Harbach,  A. W. Hauser,  J. E. Herr,  E. G. Hohenstein,  
 Z. C. Holden,  Kerwin Hui,  B. C. Huynh,  T.-C. Jagau,  Hyunjun Ji,  
 B. Kaduk,  K. Khistyaev,  Jaehoon Kim,  P. Klunzinger,  K. Koh,  
 D. Kosenkov,  L. Koulias,  T. Kowalczyk,  C. M. Krauter,  A. Kunitsa,  
 Ka Un Lao,  A. Laurent,  K. V. Lawler,  Joonho Lee,  D. Lefrancois,  
 S. Lehtola,  D. S. Levine,  Yi-Pei Li,  You-Sheng Lin,  Fenglai Liu,  
 E. Livshits,  A. Luenser,  P. Manohar,  E. Mansoor,  S. F. Manzer,  
 Shan-Ping Mao,  Yuezhi Mao,  N. Mardirossian,  A. V. Marenich,  
 T. Markovich,  L. A. Martinez-Martinez,  S. A. Maurer,  N. J. Mayhall,  
 S. C. McKenzie,  J.-M. Mewes,  A. F. Morrison,  J. W. Mullinax,  K. Nanda,  
 T. S. Nguyen-Beck,  R. Olivares-Amaya,  J. A. Parkhill,  T. M. Perrine,  
 F. Plasser,  P. Pokhilko,  S. Prager,  A. Prociuk,  E. Ramos,  D. R. Rehn,  
 F. Rob,  M. Schneider,  N. Sergueev,  S. M. Sharada,  S. Sharma,  
 D. W. Small,  T. Stauch,  T. Stein,  Yu-Chuan Su,  A. J. W. Thom,  
 A. Tkatchenko,  T. Tsuchimochi,  N. M. Tubman,  L. Vogt,  M. L. Vidal,  
 O. Vydrov,  M. A. Watson,  J. Wenzel,  M. de Wergifosse,  T. A. Wesolowski,  
 A. White,  J. Witte,  A. Yamada,  Jun Yang,  K. Yao,  S. Yeganeh,  
 S. R. Yost,  Zhi-Qiang You,  A. Zech,  Igor Ying Zhang,  Xing Zhang,  
 Yan Zhao,  Ying Zhu,  B. R. Brooks,  G. K. L. Chan,  C. J. Cramer,  
 M. S. Gordon,  W. J. Hehre,  A. Klamt,  M. W. Schmidt,  C. D. Sherrill,  
 D. G. Truhlar,  A. Aspuru-Guzik,  R. Baer,  A. T. Bell,  N. A. Besley,  
 Jeng-Da Chai,  A. E. DePrince, III,  R. A. DiStasio Jr.,  A. Dreuw,  
 B. D. Dunietz,  T. R. Furlani,  Chao-Ping Hsu,  Yousung Jung,  Jing Kong,  
 D. S. Lambrecht,  WanZhen Liang,  C. Ochsenfeld,  V. A. Rassolov,  
 L. V. Slipchenko,  J. E. Subotnik,  T. Van Voorhis,  J. M. Herbert,  
 A. I. Krylov,  P. M. W. Gill,  M. Head-Gordon

 Contributors to earlier versions of Q-Chem not listed above: 
 R. D. Adamson,  B. Austin,  J. Baker,  G. J. O. Beran,  K. Brandhorst,  
 S. T. Brown,  E. F. C. Byrd,  A. K. Chakraborty,  C.-L. Cheng,  
 Siu Hung Chien,  D. M. Chipman,  D. L. Crittenden,  H. Dachsel,  
 R. J. Doerksen,  A. D. Dutoi,  L. Fusti-Molnar,  W. A. Goddard III,  
 A. Golubeva-Zadorozhnaya,  S. R. Gwaltney,  G. Hawkins,  A. Heyden,  
 S. Hirata,  G. Kedziora,  F. J. Keil,  C. Kelley,  Jihan Kim,  R. A. King,  
 R. Z. Khaliullin,  P. P. Korambath,  W. Kurlancheek,  A. M. Lee,  M. S. Lee,  
 S. V. Levchenko,  Ching Yeh Lin,  D. Liotard,  R. C. Lochan,  I. Lotan,  
 P. E. Maslen,  N. Nair,  D. P. O'Neill,  D. Neuhauser,  E. Neuscamman,  
 C. M. Oana,  R. Olson,  B. Peters,  R. Peverati,  P. A. Pieniazek,  
 Y. M. Rhee,  J. Ritchie,  M. A. Rohrdanz,  E. Rosta,  N. J. Russ,  
 H. F. Schaefer III,  N. E. Schultz,  N. Shenvi,  A. C. Simmonett,  A. Sodt,  
 D. Stuck,  K. S. Thanthiriwatte,  V. Vanovschi,  Tao Wang,  A. Warshel,  
 C. F. Williams,  Q. Wu,  X. Xu,  W. Zhang

 Please cite Q-Chem as follows:
 Y. Shao et al., Mol. Phys. 113, 184-215 (2015)
 DOI: 10.1080/00268976.2014.952696

 Q-Chem 5.2.0 for Intel X86 EM64T Linux

 Parts of Q-Chem use Armadillo 8.300.2 (Tropical Shenanigans).
 http://arma.sourceforge.net/

 Q-Chem begins on Mon Dec  9 15:28:11 2019  

Host: gollum146.lsa.umich.edu
0

     Scratch files written to /scratch/craldaz/830063/qchem3776//
 Parallel job on  1  processors

Checking the input file for inconsistencies... 	...done.

--------------------------------------------------------------
User input:
--------------------------------------------------------------
 $rem
 JOBTYPE OPT
 EXCHANGE B3LYP
 SCF_ALGORITHM diis
 SCF_MAX_CYCLES 300
 BASIS 6-31G**
 GEOM_OPT_MAX_CYCLES 300
 scf_convergence 8
 SYM_IGNORE TRUE
 SYMMETRY   FALSE

molden_format true
 $end

$molecule
0 1
C         -1.68471       -0.32692        0.21228
C         -1.29532       -1.65983        0.20567
C          0.19736       -1.73096        0.33335
C          0.60764       -0.29807        0.48174
C         -0.51543        0.50953        0.38999
C         -3.01847        0.06183        0.07060
C         -3.98765       -0.93146       -0.11021
C         -3.61174       -2.28291       -0.16101
C         -2.26590       -2.65465       -0.01660
H         -3.30337        1.10530        0.09179
H         -5.02770       -0.65566       -0.22656
H         -4.36487       -3.04325       -0.32299
H         -2.01925       -3.69901       -0.09295
C         -0.44849        1.89901        0.51496
C          1.84239        0.28610        0.81575
C          0.79517        2.48583        0.77776
C          1.93354        1.68075        0.94264
H          2.72403       -0.30674        0.99383
H          2.88455        2.13771        1.18378
H         -1.33549        2.51293        0.43292
H          0.87312        3.55980        0.88634
C          0.99306       -2.85316        0.37271
C          0.48657       -4.22927        0.79437
C          2.46252       -2.99543        0.11634
C          1.76808       -5.03348        1.13675
C          2.87794       -4.21414        0.61392
H          1.71822       -6.04358        0.67615
H          1.97000       -5.13635        2.22707
C          4.21096       -4.61899        0.59877
C          5.16442       -3.80024        0.00060
C          3.39958       -2.21342       -0.62935
C          4.76902       -2.61884       -0.64596
H          4.50335       -5.56764        1.03102
H          6.19878       -4.12308       -0.01623
C          5.72472       -1.86252       -1.34304
C          3.03724       -1.09962       -1.41495
C          3.99779       -0.36444       -2.11302
C          5.33937       -0.73384       -2.06333
H          2.01257       -0.79199       -1.52013
H          3.69748        0.49316       -2.70135
H          6.76743       -2.15778       -1.34985
H          6.07855       -0.16095       -2.60827
H         -0.05533       -4.68121       -0.06215
C         -0.35561       -4.22397        2.09492
H          0.22474       -3.77982        2.93304
H         -0.63002       -5.26609        2.36563
H         -1.29087       -3.64999        2.04069
$end
--------------------------------------------------------------
 ----------------------------------------------------------------
             Standard Nuclear Orientation (Angstroms)
    I     Atom           X                Y                Z
 ----------------------------------------------------------------
    1      C      -1.6847100000    -0.3269200000     0.2122800000
    2      C      -1.2953200000    -1.6598300000     0.2056700000
    3      C       0.1973600000    -1.7309600000     0.3333500000
    4      C       0.6076400000    -0.2980700000     0.4817400000
    5      C      -0.5154300000     0.5095300000     0.3899900000
    6      C      -3.0184700000     0.0618300000     0.0706000000
    7      C      -3.9876500000    -0.9314600000    -0.1102100000
    8      C      -3.6117400000    -2.2829100000    -0.1610100000
    9      C      -2.2659000000    -2.6546500000    -0.0166000000
   10      H      -3.3033700000     1.1053000000     0.0917900000
   11      H      -5.0277000000    -0.6556600000    -0.2265600000
   12      H      -4.3648700000    -3.0432500000    -0.3229900000
   13      H      -2.0192500000    -3.6990100000    -0.0929500000
   14      C      -0.4484900000     1.8990100000     0.5149600000
   15      C       1.8423900000     0.2861000000     0.8157500000
   16      C       0.7951700000     2.4858300000     0.7777600000
   17      C       1.9335400000     1.6807500000     0.9426400000
   18      H       2.7240300000    -0.3067400000     0.9938300000
   19      H       2.8845500000     2.1377100000     1.1837800000
   20      H      -1.3354900000     2.5129300000     0.4329200000
   21      H       0.8731200000     3.5598000000     0.8863400000
   22      C       0.9930600000    -2.8531600000     0.3727100000
   23      C       0.4865700000    -4.2292700000     0.7943700000
   24      C       2.4625200000    -2.9954300000     0.1163400000
   25      C       1.7680800000    -5.0334800000     1.1367500000
   26      C       2.8779400000    -4.2141400000     0.6139200000
   27      H       1.7182200000    -6.0435800000     0.6761500000
   28      H       1.9700000000    -5.1363500000     2.2270700000
   29      C       4.2109600000    -4.6189900000     0.5987700000
   30      C       5.1644200000    -3.8002400000     0.0006000000
   31      C       3.3995800000    -2.2134200000    -0.6293500000
   32      C       4.7690200000    -2.6188400000    -0.6459600000
   33      H       4.5033500000    -5.5676400000     1.0310200000
   34      H       6.1987800000    -4.1230800000    -0.0162300000
   35      C       5.7247200000    -1.8625200000    -1.3430400000
   36      C       3.0372400000    -1.0996200000    -1.4149500000
   37      C       3.9977900000    -0.3644400000    -2.1130200000
   38      C       5.3393700000    -0.7338400000    -2.0633300000
   39      H       2.0125700000    -0.7919900000    -1.5201300000
   40      H       3.6974800000     0.4931600000    -2.7013500000
   41      H       6.7674300000    -2.1577800000    -1.3498500000
   42      H       6.0785500000    -0.1609500000    -2.6082700000
   43      H      -0.0553300000    -4.6812100000    -0.0621500000
   44      C      -0.3556100000    -4.2239700000     2.0949200000
   45      H       0.2247400000    -3.7798200000     2.9330400000
   46      H      -0.6300200000    -5.2660900000     2.3656300000
   47      H      -1.2908700000    -3.6499900000     2.0406900000
 ----------------------------------------------------------------
 Nuclear Repulsion Energy =  2272.5970899893 hartrees
 There are       91 alpha and       91 beta electrons
 Requested basis set is 6-31G(d,p)
 There are 168 shells and 505 basis functions

 Total QAlloc Memory Limit   2000 MB
 Mega-Array Size       188 MB
 MEM_STATIC part       192 MB
 A cutoff of  1.0D-11 yielded   7900 shell pairs
 There are     76873 function pairs
 
 -------------------------------------------------------
 OpenMP Integral Computing Module                       
 Release: version 1.0, May 2013, Q-Chem Inc. Pittsburgh 
 -------------------------------------------------------
 Integral Job Info:
 Integral job number is                      11
 Integral operator is                         1
 short-range coefficients                     0
 long-range coefficients              100000000
 Omega coefficients                           0
 if combine SR and LR in K                    0
 Integral screening is                        0
 Integral computing path is                   2
 max size of driver memory is            800000
 size of driver memory is                593474
 size of scratch memory is              2361544
 max col of scratch BK array               1296
 max len of scratch array in speh3          155
 max len of scratch index in speh4           18
 max int batch size is                      520
 min int batch size is                       52
 fixed nKL is                                52
 max L of basis functions is                  2
 order of int derivative is                   0
 number of shells is                        168
 number of basis is                         505
 number of cartesian basis is               505
 number of contracted shell pairs          7900
 number of primitive shell pairs          23642
 maxK2 (contraction) of shell pair           36
 max number of K2 of shell pair               1
 max number of CS2 of shell pair            735
 max number of PS2 of shell pair           4254
 mem total for path MDJ                  657612
 -------------------------------------------------------
 Smallest overlap matrix eigenvalue = 2.22E-04

 Scale SEOQF with 1.000000e-02/1.000000e-02/1.000000e-01

 Standard Electronic Orientation quadrupole field applied
 Nucleus-field energy     =    -0.0000000047 hartrees
 Guess from superposition of atomic densities
 Warning:  Energy on first SCF cycle will be non-variational
 SAD guess density has 182.000001 electrons

 -----------------------------------------------------------------------
  General SCF calculation program by
  Eric Jon Sundstrom, Paul Horn, Yuezhi Mao, Dmitri Zuev, Alec White,
  David Stuck, Shaama M.S., Shane Yost, Joonho Lee, David Small,
  Daniel Levine, Susi Lehtola, Hugh Burton, Evgeny Epifanovsky
 -----------------------------------------------------------------------
 Exchange:     0.2000 Hartree-Fock + 0.0800 Slater + 0.7200 B88
 Correlation:  0.1900 VWN1RPA + 0.8100 LYP
 Using SG-1 standard quadrature grid
 using 14 threads for integral computing
 -------------------------------------------------------
 OpenMP Integral computing Module                
 Release: version 1.0, May 2013, Q-Chem Inc. Pittsburgh 
 -------------------------------------------------------
 -------------------------------------------------------
 OpenMP BLAS3 based DFT computing Module                
 Release: version 1.0, May 2013, Q-Chem Inc. Pittsburgh 
 -------------------------------------------------------
 A restricted SCF calculation will be
 performed using DIIS
 SCF converges when DIIS error is below 1.0e-08
 ---------------------------------------
  Cycle       Energy         DIIS error
 ---------------------------------------
    1   -1047.8387994056      3.42e-02  
    2   -1040.6375958913      2.94e-03  
    3   -1040.6688567625      2.87e-03  
    4   -1040.9405941814      6.39e-04  
    5   -1040.9511049873      3.39e-04  
    6   -1040.9552278776      9.34e-05  
    7   -1040.9554886895      3.77e-05  
    8   -1040.9555348332      1.25e-05  
    9   -1040.9555401383      1.96e-06  
   10   -1040.9555402437      9.51e-07  
   11   -1040.9555402740      2.32e-07  
   12   -1040.9555402756      1.19e-07  
   13   -1040.9555402761      3.33e-08  
   14   -1040.9555402761      1.89e-08  
   15   -1040.9555402761      5.48e-09  Convergence criterion met
 ---------------------------------------
 SCF time:   CPU 755.11s  wall 55.00s 
 SCF   energy in the final basis set =    -1040.9555402761
 Total energy in the final basis set =    -1040.9555402761
 
 --------------------------------------------------------------
 
                    Orbital Energies (a.u.)
 --------------------------------------------------------------
 
 Alpha MOs
 -- Occupied --
-10.2090 -10.2024 -10.1997 -10.1986 -10.1970 -10.1970 -10.1965 -10.1946
-10.1917 -10.1908 -10.1908 -10.1885 -10.1879 -10.1875 -10.1858 -10.1845
-10.1844 -10.1837 -10.1834 -10.1834 -10.1821 -10.1813 -10.1809 -10.1802
-10.1800 -10.1780 -10.1776  -0.8913  -0.8806  -0.8510  -0.8336  -0.8102
 -0.7905  -0.7713  -0.7621  -0.7457  -0.7320  -0.7248  -0.7117  -0.7056
 -0.6722  -0.6520  -0.6299  -0.6118  -0.6011  -0.5884  -0.5834  -0.5763
 -0.5625  -0.5388  -0.5184  -0.5062  -0.4910  -0.4843  -0.4766  -0.4729
 -0.4586  -0.4512  -0.4467  -0.4360  -0.4315  -0.4243  -0.4152  -0.4135
 -0.4118  -0.4055  -0.3999  -0.3996  -0.3956  -0.3863  -0.3784  -0.3763
 -0.3655  -0.3543  -0.3489  -0.3461  -0.3410  -0.3377  -0.3339  -0.3289
 -0.3251  -0.3167  -0.3139  -0.2992  -0.2823  -0.2690  -0.2422  -0.2403
 -0.2214  -0.2077  -0.1903
 -- Virtual --
 -0.0704  -0.0286  -0.0148  -0.0076   0.0130   0.0345   0.0512   0.0725
  0.0829   0.1007   0.1021   0.1085   0.1116   0.1187   0.1264   0.1349
  0.1408   0.1534   0.1583   0.1646   0.1682   0.1706   0.1731   0.1771
  0.1802   0.1867   0.1922   0.1963   0.2010   0.2070   0.2155   0.2227
  0.2293   0.2338   0.2485   0.2517   0.2561   0.2603   0.2724   0.2783
  0.2910   0.2944   0.3064   0.3109   0.3169   0.3203   0.3339   0.3431
  0.3613   0.3704   0.3856   0.3929   0.4036   0.4128   0.4342   0.4628
  0.4689   0.4819   0.5041   0.5113   0.5152   0.5192   0.5202   0.5266
  0.5329   0.5380   0.5428   0.5442   0.5487   0.5550   0.5599   0.5620
  0.5650   0.5661   0.5729   0.5754   0.5773   0.5841   0.5872   0.5884
  0.5976   0.6002   0.6042   0.6061   0.6076   0.6115   0.6140   0.6164
  0.6192   0.6220   0.6258   0.6309   0.6377   0.6472   0.6506   0.6547
  0.6569   0.6622   0.6683   0.6716   0.6761   0.6885   0.6956   0.7033
  0.7137   0.7213   0.7379   0.7558   0.7634   0.7831   0.7850   0.7952
  0.7978   0.8040   0.8120   0.8177   0.8198   0.8240   0.8285   0.8323
  0.8352   0.8376   0.8452   0.8509   0.8590   0.8624   0.8662   0.8758
  0.8785   0.8834   0.8875   0.8926   0.9017   0.9134   0.9147   0.9204
  0.9311   0.9366   0.9395   0.9468   0.9569   0.9584   0.9709   0.9920
  0.9991   1.0059   1.0088   1.0158   1.0296   1.0333   1.0492   1.0588
  1.0698   1.0757   1.0825   1.1120   1.1167   1.1249   1.1309   1.1364
  1.1432   1.1585   1.1683   1.1824   1.1994   1.2073   1.2208   1.2389
  1.2455   1.2462   1.2635   1.2733   1.2820   1.2878   1.2913   1.3008
  1.3103   1.3227   1.3419   1.3616   1.3686   1.3706   1.3723   1.3901
  1.3915   1.3980   1.4144   1.4161   1.4222   1.4241   1.4288   1.4339
  1.4440   1.4564   1.4692   1.4736   1.4838   1.5058   1.5186   1.5294
  1.5521   1.5710   1.5761   1.5973   1.6095   1.6205   1.6352   1.6521
  1.6859   1.7084   1.7234   1.7372   1.7476   1.7633   1.7741   1.7764
  1.7831   1.7937   1.7963   1.7979   1.8028   1.8160   1.8291   1.8435
  1.8487   1.8635   1.8691   1.8769   1.8842   1.8883   1.8917   1.8991
  1.9070   1.9162   1.9228   1.9281   1.9370   1.9453   1.9533   1.9560
  1.9585   1.9664   1.9802   1.9831   1.9943   1.9976   2.0024   2.0087
  2.0136   2.0220   2.0342   2.0361   2.0450   2.0541   2.0592   2.0649
  2.0818   2.0921   2.0954   2.1198   2.1251   2.1344   2.1413   2.1514
  2.1708   2.1760   2.1880   2.1996   2.2086   2.2209   2.2303   2.2535
  2.2595   2.2688   2.2752   2.2867   2.2909   2.2940   2.3017   2.3157
  2.3333   2.3351   2.3399   2.3488   2.3631   2.3760   2.3842   2.3871
  2.3893   2.3945   2.4004   2.4077   2.4124   2.4232   2.4333   2.4546
  2.4574   2.4602   2.4666   2.4700   2.4722   2.4836   2.4873   2.4948
  2.5066   2.5071   2.5173   2.5264   2.5393   2.5426   2.5502   2.5705
  2.5714   2.5748   2.5835   2.5918   2.6017   2.6085   2.6106   2.6163
  2.6247   2.6325   2.6496   2.6561   2.6774   2.6847   2.6891   2.6981
  2.7026   2.7121   2.7241   2.7282   2.7381   2.7452   2.7581   2.7608
  2.7725   2.7833   2.7858   2.7981   2.8046   2.8202   2.8376   2.8512
  2.8647   2.8877   2.8918   2.9135   2.9289   2.9455   2.9525   3.0027
  3.0092   3.0386   3.0456   3.0912   3.1316   3.1504   3.1794   3.1887
  3.1991   3.2196   3.2297   3.2505   3.2539   3.2583   3.2645   3.2772
  3.2811   3.3135   3.3469   3.3490   3.3555   3.3727   3.3919   3.4084
  3.4206   3.4512   3.4622   3.4875   3.4925   3.5069   3.5329   3.7419
  3.8280   3.8722   3.9114   4.1193   4.1267   4.1341   4.1421   4.1468
  4.1478   4.1598   4.1754   4.1982   4.2081   4.2284   4.2523   4.2883
  4.3669   4.3947   4.4139   4.4434   4.4569   4.5273   4.5437   4.5510
  4.5919   4.6771   4.7942   4.8773   4.9283   4.9577
 --------------------------------------------------------------
 
          Ground-State Mulliken Net Atomic Charges

     Atom                 Charge (a.u.)
  ----------------------------------------
      1 C                     0.029440
      2 C                     0.065887
      3 C                    -0.006220
      4 C                     0.040352
      5 C                     0.032547
      6 C                    -0.116512
      7 C                    -0.098465
      8 C                    -0.092877
      9 C                    -0.143600
     10 H                     0.082498
     11 H                     0.081045
     12 H                     0.080636
     13 H                     0.084438
     14 C                    -0.119316
     15 C                    -0.132212
     16 C                    -0.099669
     17 C                    -0.092224
     18 H                     0.098528
     19 H                     0.081677
     20 H                     0.080416
     21 H                     0.079467
     22 C                    -0.013411
     23 C                    -0.131205
     24 C                     0.046892
     25 C                    -0.250145
     26 C                     0.057245
     27 H                     0.111798
     28 H                     0.121047
     29 C                    -0.126714
     30 C                    -0.135284
     31 C                     0.053767
     32 C                     0.120986
     33 H                     0.082054
     34 H                     0.088793
     35 C                    -0.144491
     36 C                    -0.135472
     37 C                    -0.090235
     38 C                    -0.088097
     39 H                     0.113168
     40 H                     0.090505
     41 H                     0.085969
     42 H                     0.083738
     43 H                     0.115474
     44 C                    -0.313093
     45 H                     0.105722
     46 H                     0.096854
     47 H                     0.118298
  ----------------------------------------
  Sum of atomic charges =     0.000000

 -----------------------------------------------------------------
                    Cartesian Multipole Moments
 -----------------------------------------------------------------
    Charge (ESU x 10^10)
                 0.0000
    Dipole Moment (Debye)
         X       1.1656      Y      -1.3686      Z      -0.0570
       Tot       1.7986
    Quadrupole Moments (Debye-Ang)
        XX    -137.7461     XY      -4.8636     YY    -135.4915
        XZ       0.3374     YZ      -4.2592     ZZ    -158.1525
    Octopole Moments (Debye-Ang^2)
       XXX    -475.9428    XXY     220.4387    XYY    -155.5338
       YYY     686.9655    XXZ     -32.1490    XYZ     -17.6683
       YYZ       8.6151    XZZ    -173.2988    YZZ     262.0348
       ZZZ     -47.1669
    Hexadecapole Moments (Debye-Ang^3)
      XXXX   -7742.7365   XXXY    1192.0298   XXYY   -2334.5851
      XYYY    1272.4539   YYYY   -6268.9616   XXXZ     341.2034
      XXYZ      51.0346   XYYZ     237.0586   YYYZ     172.0545
      XXZZ   -1634.7739   XYZZ     503.6963   YYZZ   -1334.0862
      XZZZ     449.9480   YZZZ     223.2914   ZZZZ   -1113.9077
 -----------------------------------------------------------------
 Calculating analytic gradient of the SCF energy
 Gradient of SCF Energy
            1           2           3           4           5           6
    1   0.0141058  -0.0092593  -0.0004260  -0.0222521   0.0140947   0.0037459
    2  -0.0191062   0.0282110  -0.0070924   0.0162077  -0.0197348   0.0111243
    3   0.0006889   0.0010245  -0.0024128  -0.0021537   0.0007321   0.0018930
            7           8           9          10          11          12
    1  -0.0053596  -0.0080527   0.0078058   0.0001443   0.0027204   0.0012699
    2  -0.0005332  -0.0049506  -0.0090367  -0.0027235  -0.0005092   0.0020736
    3  -0.0007641  -0.0002458   0.0015705   0.0001314  -0.0000635   0.0002537
           13          14          15          16          17          18
    1  -0.0033590  -0.0110873   0.0035541   0.0023203   0.0083881  -0.0014899
    2   0.0045899  -0.0003353  -0.0090840   0.0052104   0.0061092   0.0026667
    3  -0.0006069  -0.0027296  -0.0020998   0.0005660   0.0005187   0.0000747
           19          20          21          22          23          24
    1  -0.0023449   0.0025711  -0.0004209  -0.0091934   0.0036212   0.0178842
    2  -0.0004474  -0.0011297  -0.0028251  -0.0084076   0.0001896  -0.0052005
    3  -0.0006418   0.0002405   0.0002239   0.0058373  -0.0170002  -0.0017445
           25          26          27          28          29          30
    1   0.0024255  -0.0058710  -0.0054535   0.0133149  -0.0217202   0.0116514
    2   0.0130382   0.0061038  -0.0066025   0.0046773  -0.0076162   0.0234003
    3   0.0007179   0.0056844  -0.0076486   0.0079694   0.0088345  -0.0141970
           31          32          33          34          35          36
    1   0.0085816  -0.0060378  -0.0000820  -0.0026578   0.0007763  -0.0120953
    2  -0.0085590   0.0000540   0.0023493  -0.0025838  -0.0219103  -0.0117840
    3   0.0038071  -0.0007936  -0.0014208   0.0009311   0.0152593   0.0141347
           37          38          39          40          41          42
    1   0.0161256  -0.0144018   0.0044525   0.0019226  -0.0008120  -0.0023690
    2   0.0074047   0.0121969   0.0025574  -0.0012881   0.0031060  -0.0013448
    3  -0.0067827  -0.0063601  -0.0022996   0.0013382  -0.0020079   0.0008758
           43          44          45          46          47
    1  -0.0029262   0.0114559   0.0032358  -0.0039118  -0.0045841
    2   0.0017164  -0.0004359   0.0061995  -0.0088299   0.0028846
    3  -0.0090161  -0.0048237   0.0093672   0.0009715   0.0021665
 Max gradient component =       2.821E-02
 RMS gradient           =       8.198E-03
 Gradient time:  CPU 190.10 s  wall 16.62 s
 Geometry Optimization Parameters
   NAtoms,    NIC,     NZ,  NCons,   NDum,   NFix, NCnnct, MaxDiis
       47     378       0       0       0       0       0       0


** GEOMETRY OPTIMIZATION IN DELOCALIZED INTERNAL COORDINATES **
   Searching for a Minimum

   Optimization Cycle:   1

                       Coordinates (Angstroms)
     ATOM                X               Y               Z
      1  C        -1.6847100000   -0.3269200000    0.2122800000
      2  C        -1.2953200000   -1.6598300000    0.2056700000
      3  C         0.1973600000   -1.7309600000    0.3333500000
      4  C         0.6076400000   -0.2980700000    0.4817400000
      5  C        -0.5154300000    0.5095300000    0.3899900000
      6  C        -3.0184700000    0.0618300000    0.0706000000
      7  C        -3.9876500000   -0.9314600000   -0.1102100000
      8  C        -3.6117400000   -2.2829100000   -0.1610100000
      9  C        -2.2659000000   -2.6546500000   -0.0166000000
     10  H        -3.3033700000    1.1053000000    0.0917900000
     11  H        -5.0277000000   -0.6556600000   -0.2265600000
     12  H        -4.3648700000   -3.0432500000   -0.3229900000
     13  H        -2.0192500000   -3.6990100000   -0.0929500000
     14  C        -0.4484900000    1.8990100000    0.5149600000
     15  C         1.8423900000    0.2861000000    0.8157500000
     16  C         0.7951700000    2.4858300000    0.7777600000
     17  C         1.9335400000    1.6807500000    0.9426400000
     18  H         2.7240300000   -0.3067400000    0.9938300000
     19  H         2.8845500000    2.1377100000    1.1837800000
     20  H        -1.3354900000    2.5129300000    0.4329200000
     21  H         0.8731200000    3.5598000000    0.8863400000
     22  C         0.9930600000   -2.8531600000    0.3727100000
     23  C         0.4865700000   -4.2292700000    0.7943700000
     24  C         2.4625200000   -2.9954300000    0.1163400000
     25  C         1.7680800000   -5.0334800000    1.1367500000
     26  C         2.8779400000   -4.2141400000    0.6139200000
     27  H         1.7182200000   -6.0435800000    0.6761500000
     28  H         1.9700000000   -5.1363500000    2.2270700000
     29  C         4.2109600000   -4.6189900000    0.5987700000
     30  C         5.1644200000   -3.8002400000    0.0006000000
     31  C         3.3995800000   -2.2134200000   -0.6293500000
     32  C         4.7690200000   -2.6188400000   -0.6459600000
     33  H         4.5033500000   -5.5676400000    1.0310200000
     34  H         6.1987800000   -4.1230800000   -0.0162300000
     35  C         5.7247200000   -1.8625200000   -1.3430400000
     36  C         3.0372400000   -1.0996200000   -1.4149500000
     37  C         3.9977900000   -0.3644400000   -2.1130200000
     38  C         5.3393700000   -0.7338400000   -2.0633300000
     39  H         2.0125700000   -0.7919900000   -1.5201300000
     40  H         3.6974800000    0.4931600000   -2.7013500000
     41  H         6.7674300000   -2.1577800000   -1.3498500000
     42  H         6.0785500000   -0.1609500000   -2.6082700000
     43  H        -0.0553300000   -4.6812100000   -0.0621500000
     44  C        -0.3556100000   -4.2239700000    2.0949200000
     45  H         0.2247400000   -3.7798200000    2.9330400000
     46  H        -0.6300200000   -5.2660900000    2.3656300000
     47  H        -1.2908700000   -3.6499900000    2.0406900000
   Point Group: c1    Number of degrees of freedom:   135


   Energy is  -1040.955540276


 Attempting to generate delocalized internal coordinates
 Initial Hessian constructed with Jon Baker's OPTIMIZE code

135 Hessian modes will be used to form the next step
  Hessian Eigenvalues:
     0.002640    0.005456    0.011381    0.012247    0.016364    0.017176
     0.017676    0.017791    0.018935    0.019234    0.019815    0.020177
     0.020478    0.020737    0.020935    0.021630    0.021737    0.021800
     0.021894    0.021913    0.021921    0.021922    0.021945    0.022172
     0.022211    0.022222    0.022390    0.022424    0.022538    0.022641
     0.022683    0.022726    0.022804    0.023114    0.023156    0.023367
     0.023398    0.025551    0.039932    0.043427    0.047422    0.050847
     0.055254    0.055462    0.061381    0.087171    0.089192    0.131593
     0.159572    0.159896    0.159914    0.159959    0.159964    0.159964
     0.159974    0.159974    0.159976    0.159986    0.159987    0.159993
     0.159996    0.159997    0.160000    0.160000    0.160000    0.197305
     0.219943    0.219973    0.219985    0.224102    0.225776    0.225858
     0.227104    0.241863    0.242181    0.242887    0.244457    0.245357
     0.247419    0.248082    0.249032    0.249191    0.249449    0.269169
     0.276999    0.289046    0.313738    0.315534    0.316401    0.322196
     0.323903    0.324650    0.324812    0.326271    0.338281    0.342480
     0.355475    0.355507    0.356684    0.356945    0.357076    0.357081
     0.357174    0.357215    0.357232    0.357691    0.357718    0.363290
     0.365061    0.366040    0.371379    0.372942    0.392354    0.395289
     0.411225    0.412096    0.412611    0.413042    0.425623    0.436151
     0.445194    0.448018    0.448608    0.452940    0.453169    0.453568
     0.455531    0.456388    0.456811    0.457845    0.458894    0.466791
     0.467978    0.468387    0.497971

 Minimum search - taking simple RFO step
 Searching for Lamda that Minimizes Along All modes
 Value Taken    Lamda =  -0.02378637
 Calculated Step too Large.  Step scaled by  0.603348
 Step Taken.  Stepsize is  0.300000

                             Maximum     Tolerance    Cnvgd?
         Gradient           0.023634      0.000300      NO
         Displacement       0.213521      0.001200      NO
         Energy change     *********      0.000001      NO


 New Cartesian Coordinates Obtained by Inverse Iteration

 Displacement from previous Coordinates is:  2.474941
 ----------------------------------------------------------------
             Standard Nuclear Orientation (Angstroms)
    I     Atom           X                Y                Z
 ----------------------------------------------------------------
    1      C      -1.6791719700    -0.3079420561     0.2023066745
    2      C      -1.2480377439    -1.6415354657     0.1739467916
    3      C       0.2336170304    -1.6824084764     0.3729556999
    4      C       0.6085694226    -0.2518901169     0.6017662617
    5      C      -0.5358993594     0.5487228005     0.4847782409
    6      C      -3.0150806836     0.0403755401    -0.0077614341
    7      C      -3.9370579367    -0.9720807108    -0.2809669136
    8      C      -3.5151847621    -2.3067353012    -0.3571747403
    9      C      -2.1749610346    -2.6477636412    -0.1434161358
   10      H      -3.3348737789     1.0754777752     0.0318152397
   11      H      -4.9793263702    -0.7240836170    -0.4496423247
   12      H      -4.2336757949    -3.0843081798    -0.5917650533
   13      H      -1.8869072991    -3.6841661389    -0.2404987172
   14      C      -0.4966039811     1.9304925331     0.6842493834
   15      C       1.8017921957     0.3383388990     1.0471731373
   16      C       0.7149485805     2.5182963785     1.0535572259
   17      C       1.8511837096     1.7214410058     1.2523989242
   18      H       2.6822514003    -0.2508162949     1.2543057722
   19      H       2.7776556342     2.1794128701     1.5804747411
   20      H      -1.3898165226     2.5361229361     0.5803293675
   21      H       0.7688669867     3.5885873993     1.2207447136
   22      C       1.0272092305    -2.8054520717     0.4101898088
   23      C       0.5043738878    -4.1710312463     0.8759544790
   24      C       2.4809486974    -2.9756661916     0.1196458325
   25      C       1.7816493167    -4.9852658541     1.2214366732
   26      C       2.9036908222    -4.1881797069     0.6516026365
   27      H       1.7327933931    -6.0027475489     0.7993249576
   28      H       1.9443539591    -5.0737669529     2.3103913504
   29      C       4.2428693637    -4.6005724855     0.6206469521
   30      C       5.1786340147    -3.8152400753    -0.0289337063
   31      C       3.4003410273    -2.2407583075    -0.7067986407
   32      C       4.7739286832    -2.6592460150    -0.7349188871
   33      H       4.5411661470    -5.5343070972     1.0856689489
   34      H       6.2152729773    -4.1348106634    -0.0592142965
   35      C       5.7128179917    -1.9459574075    -1.5115744137
   36      C       3.0222830860    -1.1869751966    -1.5692277358
   37      C       3.9613494986    -0.5138046378    -2.3415526074
   38      C       5.3135746883    -0.8761387866    -2.2967788188
   39      H       1.9887882686    -0.8966828515    -1.6644106399
   40      H       3.6397399894     0.2960498788    -2.9870300019
   41      H       6.7532737023    -2.2538493022    -1.5201756379
   42      H       6.0413607025    -0.3445529945    -2.9003729599
   43      H      -0.0415990012    -4.6498124829     0.0460771043
   44      C      -0.3621610618    -4.1150274560     2.1552508600
   45      H       0.2109498492    -3.6537281956     2.9752811720
   46      H      -0.6440550305    -5.1362602650     2.4601916119
   47      H      -1.2858719262    -3.5371042249     2.0571791039
 ----------------------------------------------------------------
 Nuclear Repulsion Energy =  2261.0853794263 hartrees
 There are       91 alpha and       91 beta electrons
 Applying Cartesian multipole field
    Component          Value
    ---------          -----
     (2,0,0)        1.00000E-12
     (0,2,0)        2.00000E-12
     (0,0,2)       -3.00000E-11
 Nucleus-field energy     =    -0.0000000096 hartrees
 Requested basis set is 6-31G(d,p)
 There are 168 shells and 505 basis functions
 A cutoff of  1.0D-11 yielded   7834 shell pairs
 There are     76196 function pairs
 Smallest overlap matrix eigenvalue = 2.41E-04
 Guess MOs from SCF MO coefficient file

 -----------------------------------------------------------------------
  General SCF calculation program by
  Eric Jon Sundstrom, Paul Horn, Yuezhi Mao, Dmitri Zuev, Alec White,
  David Stuck, Shaama M.S., Shane Yost, Joonho Lee, David Small,
  Daniel Levine, Susi Lehtola, Hugh Burton, Evgeny Epifanovsky
 -----------------------------------------------------------------------
 Exchange:     0.2000 Hartree-Fock + 0.0800 Slater + 0.7200 B88
 Correlation:  0.1900 VWN1RPA + 0.8100 LYP
 Using SG-1 standard quadrature grid
 using 14 threads for integral computing
 -------------------------------------------------------
 OpenMP Integral computing Module                
 Release: version 1.0, May 2013, Q-Chem Inc. Pittsburgh 
 -------------------------------------------------------
 -------------------------------------------------------
 OpenMP BLAS3 based DFT computing Module                
 Release: version 1.0, May 2013, Q-Chem Inc. Pittsburgh 
 -------------------------------------------------------
 A restricted SCF calculation will be
 performed using DIIS
 SCF converges when DIIS error is below 1.0e-08
 ---------------------------------------
  Cycle       Energy         DIIS error
 ---------------------------------------
    1   -1040.9236521741      7.33e-04  
    2   -1040.9618867776      1.16e-04  
    3   -1040.9614196464      1.86e-04  
    4   -1040.9626538530      3.31e-05  
    5   -1040.9626850865      1.80e-05  
    6   -1040.9626954450      6.40e-06  
    7   -1040.9626968326      1.94e-06  
    8   -1040.9626969618      4.80e-07  
    9   -1040.9626969688      1.48e-07  
   10   -1040.9626969693      8.05e-08  
   11   -1040.9626969695      2.72e-08  
   12   -1040.9626969695      9.09e-09  Convergence criterion met
 ---------------------------------------
 SCF time:   CPU 616.33s  wall 44.00s 
 SCF   energy in the final basis set =    -1040.9626969695
 Total energy in the final basis set =    -1040.9626969695
 
 --------------------------------------------------------------
 
                    Orbital Energies (a.u.)
 --------------------------------------------------------------
 
 Alpha MOs
 -- Occupied --
-10.2100 -10.2026 -10.2017 -10.2010 -10.1989 -10.1978 -10.1972 -10.1972
-10.1920 -10.1918 -10.1914 -10.1895 -10.1889 -10.1877 -10.1860 -10.1858
-10.1854 -10.1841 -10.1836 -10.1832 -10.1822 -10.1819 -10.1817 -10.1816
-10.1804 -10.1803 -10.1749  -0.8886  -0.8783  -0.8490  -0.8339  -0.8100
 -0.7902  -0.7699  -0.7617  -0.7446  -0.7333  -0.7255  -0.7121  -0.7049
 -0.6730  -0.6518  -0.6277  -0.6118  -0.6008  -0.5875  -0.5830  -0.5759
 -0.5629  -0.5379  -0.5177  -0.5068  -0.4897  -0.4844  -0.4774  -0.4729
 -0.4585  -0.4501  -0.4461  -0.4354  -0.4301  -0.4240  -0.4160  -0.4130
 -0.4122  -0.4044  -0.4009  -0.4001  -0.3940  -0.3855  -0.3799  -0.3765
 -0.3636  -0.3534  -0.3494  -0.3451  -0.3418  -0.3384  -0.3334  -0.3299
 -0.3244  -0.3183  -0.3162  -0.2978  -0.2829  -0.2688  -0.2421  -0.2400
 -0.2260  -0.2070  -0.1877
 -- Virtual --
 -0.0723  -0.0276  -0.0166  -0.0086   0.0134   0.0341   0.0502   0.0708
  0.0826   0.0998   0.1005   0.1075   0.1125   0.1175   0.1267   0.1366
  0.1422   0.1535   0.1594   0.1655   0.1677   0.1693   0.1730   0.1769
  0.1785   0.1861   0.1898   0.1955   0.1989   0.2081   0.2100   0.2208
  0.2284   0.2325   0.2475   0.2508   0.2580   0.2605   0.2715   0.2778
  0.2920   0.2937   0.3072   0.3108   0.3168   0.3194   0.3332   0.3422
  0.3582   0.3687   0.3823   0.3916   0.4028   0.4108   0.4324   0.4588
  0.4651   0.4792   0.5030   0.5037   0.5111   0.5149   0.5209   0.5235
  0.5333   0.5348   0.5422   0.5434   0.5474   0.5536   0.5574   0.5581
  0.5637   0.5643   0.5739   0.5755   0.5771   0.5810   0.5868   0.5886
  0.5948   0.5994   0.6024   0.6054   0.6074   0.6104   0.6129   0.6167
  0.6189   0.6216   0.6252   0.6272   0.6356   0.6444   0.6476   0.6524
  0.6535   0.6580   0.6591   0.6658   0.6744   0.6827   0.6940   0.6995
  0.7080   0.7140   0.7332   0.7579   0.7611   0.7790   0.7862   0.7920
  0.7969   0.8033   0.8088   0.8153   0.8206   0.8235   0.8270   0.8285
  0.8298   0.8336   0.8395   0.8484   0.8570   0.8588   0.8620   0.8720
  0.8766   0.8815   0.8847   0.8870   0.8995   0.9111   0.9171   0.9211
  0.9300   0.9351   0.9378   0.9483   0.9559   0.9610   0.9700   0.9818
  0.9950   0.9981   1.0049   1.0143   1.0195   1.0289   1.0419   1.0581
  1.0657   1.0709   1.0823   1.1052   1.1072   1.1135   1.1199   1.1315
  1.1376   1.1504   1.1626   1.1726   1.2005   1.2066   1.2164   1.2324
  1.2380   1.2420   1.2527   1.2603   1.2737   1.2808   1.2839   1.2955
  1.2999   1.3246   1.3344   1.3528   1.3577   1.3633   1.3691   1.3739
  1.3840   1.3949   1.4106   1.4140   1.4183   1.4205   1.4217   1.4277
  1.4299   1.4434   1.4559   1.4672   1.4773   1.5031   1.5175   1.5287
  1.5477   1.5679   1.5780   1.5871   1.5998   1.6196   1.6250   1.6465
  1.6850   1.7047   1.7201   1.7356   1.7436   1.7554   1.7674   1.7730
  1.7755   1.7885   1.7896   1.7935   1.8030   1.8115   1.8258   1.8409
  1.8479   1.8600   1.8692   1.8745   1.8761   1.8849   1.8914   1.8967
  1.9004   1.9058   1.9158   1.9203   1.9342   1.9383   1.9405   1.9501
  1.9562   1.9645   1.9713   1.9778   1.9928   1.9955   2.0001   2.0057
  2.0081   2.0147   2.0292   2.0348   2.0429   2.0476   2.0599   2.0710
  2.0795   2.0885   2.0967   2.1208   2.1241   2.1340   2.1414   2.1504
  2.1696   2.1738   2.1825   2.1959   2.2066   2.2173   2.2241   2.2489
  2.2562   2.2674   2.2735   2.2863   2.2879   2.2919   2.2974   2.3069
  2.3324   2.3341   2.3399   2.3500   2.3531   2.3700   2.3792   2.3825
  2.3843   2.3900   2.3960   2.3998   2.4089   2.4193   2.4285   2.4473
  2.4512   2.4566   2.4624   2.4666   2.4720   2.4784   2.4819   2.4917
  2.5017   2.5039   2.5175   2.5245   2.5349   2.5402   2.5462   2.5644
  2.5656   2.5728   2.5763   2.5855   2.5942   2.6015   2.6037   2.6126
  2.6201   2.6268   2.6439   2.6498   2.6702   2.6805   2.6834   2.6952
  2.7007   2.7103   2.7211   2.7275   2.7375   2.7385   2.7596   2.7610
  2.7671   2.7798   2.7831   2.7921   2.8055   2.8199   2.8335   2.8597
  2.8653   2.8828   2.8935   2.9123   2.9257   2.9308   2.9469   2.9931
  3.0024   3.0298   3.0438   3.0900   3.1269   3.1459   3.1811   3.1876
  3.2002   3.2106   3.2223   3.2450   3.2530   3.2589   3.2600   3.2697
  3.2761   3.3045   3.3394   3.3447   3.3502   3.3815   3.3838   3.4010
  3.4304   3.4472   3.4771   3.4831   3.4952   3.5019   3.5246   3.7244
  3.8255   3.8644   3.9063   4.1124   4.1169   4.1333   4.1400   4.1485
  4.1493   4.1562   4.1733   4.1864   4.2018   4.2104   4.2518   4.2832
  4.3582   4.3901   4.4093   4.4338   4.4505   4.5228   4.5392   4.5455
  4.5867   4.6733   4.7875   4.8686   4.9194   4.9420
 --------------------------------------------------------------
 
          Ground-State Mulliken Net Atomic Charges

     Atom                 Charge (a.u.)
  ----------------------------------------
      1 C                     0.030369
      2 C                     0.060128
      3 C                    -0.012256
      4 C                     0.051333
      5 C                     0.029174
      6 C                    -0.117505
      7 C                    -0.098240
      8 C                    -0.091838
      9 C                    -0.138190
     10 H                     0.082256
     11 H                     0.081313
     12 H                     0.080160
     13 H                     0.081211
     14 C                    -0.119199
     15 C                    -0.129989
     16 C                    -0.098326
     17 C                    -0.090730
     18 H                     0.092572
     19 H                     0.081176
     20 H                     0.080909
     21 H                     0.080153
     22 C                    -0.023268
     23 C                    -0.125894
     24 C                     0.041764
     25 C                    -0.250252
     26 C                     0.053411
     27 H                     0.112965
     28 H                     0.120810
     29 C                    -0.123916
     30 C                    -0.130690
     31 C                     0.057747
     32 C                     0.109682
     33 H                     0.083507
     34 H                     0.088513
     35 C                    -0.139898
     36 C                    -0.122110
     37 C                    -0.093382
     38 C                    -0.087213
     39 H                     0.106897
     40 H                     0.090264
     41 H                     0.085552
     42 H                     0.085228
     43 H                     0.115592
     44 C                    -0.315253
     45 H                     0.106896
     46 H                     0.097411
     47 H                     0.121154
  ----------------------------------------
  Sum of atomic charges =     0.000000

 -----------------------------------------------------------------
                    Cartesian Multipole Moments
 -----------------------------------------------------------------
    Charge (ESU x 10^10)
                 0.0000
    Dipole Moment (Debye)
         X       1.1416      Y      -1.4205      Z      -0.0522
       Tot       1.8231
    Quadrupole Moments (Debye-Ang)
        XX    -138.1865     XY      -5.3488     YY    -135.8962
        XZ       0.5545     YZ      -4.0307     ZZ    -156.9764
    Octopole Moments (Debye-Ang^2)
       XXX    -477.5722    XXY     218.4283    XYY    -156.9427
       YYY     688.5367    XXZ     -35.7088    XYZ     -17.3897
       YYZ      12.4596    XZZ    -169.8343    YZZ     262.1018
       ZZZ     -49.1100
    Hexadecapole Moments (Debye-Ang^3)
      XXXX   -7685.3434   XXXY    1229.7068   XXYY   -2318.7898
      XYYY    1332.5358   YYYY   -6230.3965   XXXZ     347.7950
      XXYZ      39.2074   XYYZ     251.4236   YYYZ      92.7894
      XXZZ   -1631.6196   XYZZ     527.4227   YYZZ   -1358.8301
      XZZZ     449.0152   YZZZ     143.7551   ZZZZ   -1336.7607
 -----------------------------------------------------------------
 Calculating analytic gradient of the SCF energy
 Gradient of SCF Energy
            1           2           3           4           5           6
    1   0.0069814  -0.0065411   0.0020840  -0.0130327   0.0091562   0.0005369
    2  -0.0111682   0.0151477  -0.0082680   0.0098419  -0.0097215   0.0059417
    3  -0.0002149   0.0001866  -0.0024661   0.0012521   0.0012041   0.0015413
            7           8           9          10          11          12
    1  -0.0019929  -0.0034629   0.0042206  -0.0000623   0.0011444   0.0005994
    2  -0.0000586  -0.0024454  -0.0045476  -0.0014435  -0.0000915   0.0009984
    3  -0.0003627  -0.0001337   0.0013361   0.0001158  -0.0000595   0.0001753
           13          14          15          16          17          18
    1  -0.0017468  -0.0056027   0.0018916   0.0003734   0.0034238  -0.0025236
    2   0.0019905   0.0014051  -0.0027585   0.0020249   0.0024944   0.0034032
    3  -0.0009257  -0.0021320   0.0022572  -0.0000390   0.0006777   0.0019959
           19          20          21          22          23          24
    1  -0.0010925   0.0014194  -0.0003015  -0.0082823   0.0022676   0.0112507
    2  -0.0002130  -0.0003124  -0.0011389  -0.0016848  -0.0006294  -0.0008733
    3  -0.0003979   0.0001909   0.0001780   0.0055165  -0.0112005  -0.0030354
           25          26          27          28          29          30
    1   0.0006984  -0.0031090  -0.0032923   0.0070089  -0.0100190   0.0066441
    2   0.0038002   0.0037011  -0.0028885   0.0027084  -0.0039736   0.0116120
    3   0.0011972   0.0022417  -0.0037277   0.0036243   0.0058511  -0.0071613
           31          32          33          34          35          36
    1   0.0040319  -0.0030042   0.0003629  -0.0015879   0.0017616  -0.0063721
    2  -0.0050556   0.0001395   0.0009235  -0.0020873  -0.0110872  -0.0087043
    3   0.0006428  -0.0011643  -0.0009057   0.0005749   0.0090428   0.0053590
           37          38          39          40          41          42
    1   0.0094345  -0.0080188   0.0042740   0.0007808  -0.0004045  -0.0006787
    2   0.0033093   0.0066871   0.0001683  -0.0003508   0.0019448  -0.0007523
    3  -0.0045897  -0.0036326  -0.0035617   0.0009188  -0.0016660   0.0002543
           43          44          45          46          47
    1  -0.0018343   0.0056894   0.0011760  -0.0021739  -0.0020757
    2   0.0018102  -0.0004510   0.0031097  -0.0038662   0.0014093
    3  -0.0042463  -0.0009058   0.0036688   0.0005067   0.0020184
 Max gradient component =       1.515E-02
 RMS gradient           =       4.534E-03
 Gradient time:  CPU 190.28 s  wall 14.40 s
 Geometry Optimization Parameters
   NAtoms,    NIC,     NZ,  NCons,   NDum,   NFix, NCnnct, MaxDiis
       47     378       0       0       0       0       0       0

 Cartesian Hessian Update
 Hessian updated using BFGS update


** GEOMETRY OPTIMIZATION IN DELOCALIZED INTERNAL COORDINATES **
   Searching for a Minimum

   Optimization Cycle:   2

                       Coordinates (Angstroms)
     ATOM                X               Y               Z
      1  C        -1.6791719700   -0.3079420561    0.2023066745
      2  C        -1.2480377439   -1.6415354657    0.1739467916
      3  C         0.2336170304   -1.6824084764    0.3729556999
      4  C         0.6085694226   -0.2518901169    0.6017662617
      5  C        -0.5358993594    0.5487228005    0.4847782409
      6  C        -3.0150806836    0.0403755401   -0.0077614341
      7  C        -3.9370579367   -0.9720807108   -0.2809669136
      8  C        -3.5151847621   -2.3067353012   -0.3571747403
      9  C        -2.1749610346   -2.6477636412   -0.1434161358
     10  H        -3.3348737789    1.0754777752    0.0318152397
     11  H        -4.9793263702   -0.7240836170   -0.4496423247
     12  H        -4.2336757949   -3.0843081798   -0.5917650533
     13  H        -1.8869072991   -3.6841661389   -0.2404987172
     14  C        -0.4966039811    1.9304925331    0.6842493834
     15  C         1.8017921957    0.3383388990    1.0471731373
     16  C         0.7149485805    2.5182963785    1.0535572259
     17  C         1.8511837096    1.7214410058    1.2523989242
     18  H         2.6822514003   -0.2508162949    1.2543057722
     19  H         2.7776556342    2.1794128701    1.5804747411
     20  H        -1.3898165226    2.5361229361    0.5803293675
     21  H         0.7688669867    3.5885873993    1.2207447136
     22  C         1.0272092305   -2.8054520717    0.4101898088
     23  C         0.5043738878   -4.1710312463    0.8759544790
     24  C         2.4809486974   -2.9756661916    0.1196458325
     25  C         1.7816493167   -4.9852658541    1.2214366732
     26  C         2.9036908222   -4.1881797069    0.6516026365
     27  H         1.7327933931   -6.0027475489    0.7993249576
     28  H         1.9443539591   -5.0737669529    2.3103913504
     29  C         4.2428693637   -4.6005724855    0.6206469521
     30  C         5.1786340147   -3.8152400753   -0.0289337063
     31  C         3.4003410273   -2.2407583075   -0.7067986407
     32  C         4.7739286832   -2.6592460150   -0.7349188871
     33  H         4.5411661470   -5.5343070972    1.0856689489
     34  H         6.2152729773   -4.1348106634   -0.0592142965
     35  C         5.7128179917   -1.9459574075   -1.5115744137
     36  C         3.0222830860   -1.1869751966   -1.5692277358
     37  C         3.9613494986   -0.5138046378   -2.3415526074
     38  C         5.3135746883   -0.8761387866   -2.2967788188
     39  H         1.9887882686   -0.8966828515   -1.6644106399
     40  H         3.6397399894    0.2960498788   -2.9870300019
     41  H         6.7532737023   -2.2538493022   -1.5201756379
     42  H         6.0413607025   -0.3445529945   -2.9003729599
     43  H        -0.0415990012   -4.6498124829    0.0460771043
     44  C        -0.3621610618   -4.1150274560    2.1552508600
     45  H         0.2109498492   -3.6537281956    2.9752811720
     46  H        -0.6440550305   -5.1362602650    2.4601916119
     47  H        -1.2858719262   -3.5371042249    2.0571791039
   Point Group: c1    Number of degrees of freedom:   135


   Energy is  -1040.962696970

 Hessian updated using BFGS update

134 Hessian modes will be used to form the next step
  Hessian Eigenvalues:
     0.002640    0.005523    0.011650    0.012247    0.016397    0.017146
     0.017682    0.017980    0.018942    0.019472    0.019967    0.020181
     0.020566    0.020743    0.020942    0.021614    0.021657    0.021800
     0.021868    0.021921    0.021922    0.021926    0.021959    0.022170
     0.022211    0.022215    0.022391    0.022425    0.022539    0.022641
     0.022682    0.022703    0.022816    0.023113    0.023156    0.023363
     0.023397    0.038651    0.042968    0.046285    0.047530    0.050862
     0.055262    0.055964    0.065811    0.079683    0.087571    0.131206
     0.148687    0.159629    0.159897    0.159919    0.159963    0.159964
     0.159973    0.159974    0.159977    0.159984    0.159990    0.159993
     0.159994    0.159996    0.159997    0.160265    0.192639    0.215196
     0.219954    0.219983    0.222650    0.224271    0.225843    0.226341
     0.231245    0.241943    0.242444    0.243383    0.244745    0.247305
     0.248041    0.248905    0.249237    0.262381    0.273404    0.278678
     0.289799    0.302925    0.314433    0.316536    0.322626    0.324246
     0.324735    0.325977    0.333161    0.338677    0.351926    0.355484
     0.355575    0.356739    0.356966    0.357071    0.357129    0.357186
     0.357224    0.357563    0.357705    0.359118    0.362592    0.365243
     0.365636    0.371937    0.383059    0.394999    0.400045    0.411147
     0.411882    0.412853    0.423883    0.429474    0.437514    0.445151
     0.448082    0.448359    0.452822    0.453449    0.453851    0.455548
     0.455890    0.457647    0.458892    0.460297    0.467442    0.467963
     0.491072    0.519736

 Minimum search - taking simple RFO step
 Searching for Lamda that Minimizes Along All modes
 Value Taken    Lamda =  -0.01865190
 Calculated Step too Large.  Step scaled by  0.604477
 Step Taken.  Stepsize is  0.300000

                             Maximum     Tolerance    Cnvgd?
         Gradient           0.030370      0.000300      NO
         Displacement       0.103932      0.001200      NO
         Energy change     -0.007157      0.000001      NO


 New Cartesian Coordinates Obtained by Inverse Iteration

 Displacement from previous Coordinates is:  1.503227
 ----------------------------------------------------------------
             Standard Nuclear Orientation (Angstroms)
    I     Atom           X                Y                Z
 ----------------------------------------------------------------
    1      C      -1.6529887263    -0.3023012555     0.1700724440
    2      C      -1.2282093911    -1.6596486172     0.1768721426
    3      C       0.2427742009    -1.7102216690     0.3938782154
    4      C       0.6547226252    -0.2928036807     0.5680109793
    5      C      -0.4872297806     0.5458756854     0.4460682764
    6      C      -2.9850428869     0.0376197388    -0.0720824695
    7      C      -3.9037995930    -0.9745932489    -0.3367623924
    8      C      -3.4866993143    -2.3096261004    -0.3772572835
    9      C      -2.1597392374    -2.6576556211    -0.1332158913
   10      H      -3.3014182636     1.0778587060    -0.0650723666
   11      H      -4.9456018358    -0.7271806086    -0.5274033673
   12      H      -4.2070714416    -3.0914151684    -0.6050480470
   13      H      -1.8699235237    -3.7023386871    -0.1950343265
   14      C      -0.3934359853     1.9266867678     0.6274003130
   15      C       1.8694949261     0.2718450750     0.9694061043
   16      C       0.8394956874     2.4773169217     0.9686229350
   17      C       1.9536029335     1.6502024673     1.1539862790
   18      H       2.7403640426    -0.3475984898     1.1542305583
   19      H       2.9032435446     2.0866031732     1.4532872921
   20      H      -1.2701620199     2.5616083388     0.5234084696
   21      H       0.9327980800     3.5510756557     1.1151443702
   22      C       1.0177465134    -2.8417670663     0.4558551131
   23      C       0.4903990667    -4.2116891590     0.9481486345
   24      C       2.4518093737    -2.9991794629     0.1625260095
   25      C       1.7768010346    -5.0375102284     1.2548286058
   26      C       2.9041503687    -4.2278451858     0.6601973104
   27      H       1.7447902310    -6.0446620255     0.8371759011
   28      H       1.8916375644    -5.1541748084     2.3347026665
   29      C       4.2606470089    -4.6165042338     0.5829670427
   30      C       5.1586365361    -3.8012858339    -0.0608608474
   31      C       3.3428629804    -2.2074174092    -0.6535321963
   32      C       4.7281338486    -2.6115805645    -0.7243045695
   33      H       4.5852680041    -5.5572555451     1.0224435460
   34      H       6.2064257479    -4.0849064962    -0.1247543645
   35      C       5.6363570625    -1.8401446945    -1.5013493944
   36      C       2.9323214802    -1.1138311528    -1.4555870631
   37      C       3.8373119531    -0.4065677523    -2.2188242568
   38      C       5.2076185905    -0.7530990350    -2.2268298978
   39      H       1.8838300796    -0.8426157890    -1.4854238548
   40      H       3.4829117771     0.4263668085    -2.8207402016
   41      H       6.6797901992    -2.1434173470    -1.5354550624
   42      H       5.9159209401    -0.1835461998    -2.8242390089
   43      H      -0.0504861822    -4.7088591549     0.1385714911
   44      C      -0.4100107222    -4.1398048294     2.1953527788
   45      H       0.1433849248    -3.6734118060     3.0076389535
   46      H      -0.6895024118    -5.1451279443     2.5121797940
   47      H      -1.3239600103    -3.5688224674     2.0482306356
 ----------------------------------------------------------------
 Nuclear Repulsion Energy =  2270.1725123547 hartrees
 There are       91 alpha and       91 beta electrons
 Applying Cartesian multipole field
    Component          Value
    ---------          -----
     (2,0,0)        1.00000E-12
     (0,2,0)        2.00000E-12
     (0,0,2)       -3.00000E-11
 Nucleus-field energy     =    -0.0000000085 hartrees
 Requested basis set is 6-31G(d,p)
 There are 168 shells and 505 basis functions
 A cutoff of  1.0D-11 yielded   7910 shell pairs
 There are     77078 function pairs
 Smallest overlap matrix eigenvalue = 2.46E-04
 Guess MOs from SCF MO coefficient file

 -----------------------------------------------------------------------
  General SCF calculation program by
  Eric Jon Sundstrom, Paul Horn, Yuezhi Mao, Dmitri Zuev, Alec White,
  David Stuck, Shaama M.S., Shane Yost, Joonho Lee, David Small,
  Daniel Levine, Susi Lehtola, Hugh Burton, Evgeny Epifanovsky
 -----------------------------------------------------------------------
 Exchange:     0.2000 Hartree-Fock + 0.0800 Slater + 0.7200 B88
 Correlation:  0.1900 VWN1RPA + 0.8100 LYP
 Using SG-1 standard quadrature grid
 using 14 threads for integral computing
 -------------------------------------------------------
 OpenMP Integral computing Module                
 Release: version 1.0, May 2013, Q-Chem Inc. Pittsburgh 
 -------------------------------------------------------
 -------------------------------------------------------
 OpenMP BLAS3 based DFT computing Module                
 Release: version 1.0, May 2013, Q-Chem Inc. Pittsburgh 
 -------------------------------------------------------
 A restricted SCF calculation will be
 performed using DIIS
 SCF converges when DIIS error is below 1.0e-08
 ---------------------------------------
  Cycle       Energy         DIIS error
 ---------------------------------------
    1   -1040.9529746191      4.78e-04  
    2   -1040.9664674411      9.35e-05  
    3   -1040.9662476588      1.33e-04  
    4   -1040.9668020589      2.87e-05  
    5   -1040.9668262693      1.25e-05  
    6   -1040.9668311964      3.98e-06  
    7   -1040.9668316965      1.60e-06  
    8   -1040.9668317802      5.73e-07  
    9   -1040.9668317921      1.24e-07  
   10   -1040.9668317925      7.06e-08  
   11   -1040.9668317926      2.42e-08  
   12   -1040.9668317927      7.96e-09  Convergence criterion met
 ---------------------------------------
 SCF time:   CPU 629.68s  wall 45.00s 
 SCF   energy in the final basis set =    -1040.9668317927
 Total energy in the final basis set =    -1040.9668317927
 
 --------------------------------------------------------------
 
                    Orbital Energies (a.u.)
 --------------------------------------------------------------
 
 Alpha MOs
 -- Occupied --
-10.2085 -10.2030 -10.2027 -10.2016 -10.2015 -10.2010 -10.1991 -10.1952
-10.1946 -10.1924 -10.1922 -10.1908 -10.1899 -10.1882 -10.1855 -10.1850
-10.1849 -10.1846 -10.1839 -10.1837 -10.1833 -10.1826 -10.1822 -10.1815
-10.1802 -10.1795 -10.1723  -0.8865  -0.8749  -0.8468  -0.8343  -0.8100
 -0.7902  -0.7704  -0.7603  -0.7434  -0.7343  -0.7285  -0.7122  -0.7039
 -0.6748  -0.6514  -0.6267  -0.6106  -0.6007  -0.5880  -0.5830  -0.5755
 -0.5623  -0.5372  -0.5165  -0.5073  -0.4899  -0.4850  -0.4783  -0.4728
 -0.4580  -0.4497  -0.4461  -0.4341  -0.4298  -0.4239  -0.4169  -0.4140
 -0.4127  -0.4034  -0.4020  -0.4003  -0.3926  -0.3852  -0.3800  -0.3761
 -0.3615  -0.3530  -0.3492  -0.3459  -0.3411  -0.3385  -0.3323  -0.3320
 -0.3241  -0.3202  -0.3157  -0.2984  -0.2823  -0.2698  -0.2431  -0.2404
 -0.2255  -0.2061  -0.1885
 -- Virtual --
 -0.0734  -0.0273  -0.0146  -0.0103   0.0133   0.0351   0.0510   0.0725
  0.0842   0.0984   0.0999   0.1071   0.1137   0.1169   0.1287   0.1381
  0.1436   0.1542   0.1599   0.1632   0.1673   0.1691   0.1733   0.1770
  0.1794   0.1873   0.1925   0.1977   0.1991   0.2075   0.2120   0.2206
  0.2236   0.2325   0.2442   0.2508   0.2596   0.2626   0.2689   0.2784
  0.2896   0.2950   0.3071   0.3095   0.3169   0.3193   0.3320   0.3426
  0.3548   0.3685   0.3793   0.3924   0.4014   0.4084   0.4323   0.4535
  0.4640   0.4779   0.5005   0.5056   0.5118   0.5135   0.5174   0.5195
  0.5331   0.5348   0.5408   0.5460   0.5471   0.5501   0.5562   0.5580
  0.5616   0.5660   0.5723   0.5746   0.5773   0.5824   0.5854   0.5855
  0.5929   0.5979   0.6017   0.6037   0.6060   0.6101   0.6139   0.6179
  0.6200   0.6213   0.6255   0.6281   0.6364   0.6430   0.6481   0.6507
  0.6516   0.6552   0.6640   0.6710   0.6783   0.6870   0.6990   0.6998
  0.7072   0.7155   0.7321   0.7602   0.7628   0.7815   0.7884   0.7934
  0.7970   0.8017   0.8136   0.8169   0.8192   0.8258   0.8273   0.8276
  0.8316   0.8341   0.8421   0.8494   0.8565   0.8611   0.8657   0.8696
  0.8757   0.8845   0.8853   0.8880   0.9005   0.9124   0.9196   0.9224
  0.9314   0.9334   0.9401   0.9485   0.9588   0.9619   0.9716   0.9890
  0.9984   1.0017   1.0081   1.0178   1.0283   1.0378   1.0437   1.0622
  1.0719   1.0723   1.0793   1.1092   1.1113   1.1149   1.1189   1.1329
  1.1391   1.1530   1.1649   1.1763   1.2012   1.2107   1.2156   1.2345
  1.2446   1.2513   1.2619   1.2732   1.2776   1.2836   1.2931   1.3016
  1.3063   1.3235   1.3368   1.3624   1.3671   1.3688   1.3696   1.3815
  1.3864   1.3962   1.4125   1.4179   1.4220   1.4238   1.4266   1.4299
  1.4350   1.4453   1.4504   1.4683   1.4781   1.5024   1.5147   1.5183
  1.5484   1.5684   1.5783   1.5899   1.6039   1.6219   1.6251   1.6448
  1.6856   1.7009   1.7218   1.7383   1.7441   1.7509   1.7559   1.7704
  1.7754   1.7799   1.7825   1.7867   1.8034   1.8129   1.8319   1.8367
  1.8514   1.8604   1.8671   1.8737   1.8772   1.8841   1.8889   1.8943
  1.8987   1.9069   1.9157   1.9185   1.9356   1.9402   1.9427   1.9477
  1.9595   1.9657   1.9749   1.9793   1.9947   1.9984   1.9995   2.0022
  2.0104   2.0122   2.0303   2.0354   2.0443   2.0523   2.0627   2.0735
  2.0838   2.0903   2.0982   2.1267   2.1284   2.1308   2.1450   2.1530
  2.1702   2.1768   2.1783   2.2007   2.2030   2.2190   2.2262   2.2435
  2.2559   2.2640   2.2695   2.2834   2.2899   2.2952   2.2973   2.3032
  2.3270   2.3365   2.3408   2.3508   2.3602   2.3648   2.3749   2.3801
  2.3817   2.3886   2.3961   2.3979   2.4074   2.4241   2.4259   2.4473
  2.4534   2.4566   2.4629   2.4653   2.4762   2.4774   2.4816   2.4923
  2.5020   2.5097   2.5202   2.5274   2.5376   2.5404   2.5480   2.5644
  2.5670   2.5729   2.5785   2.5859   2.5960   2.5998   2.6031   2.6128
  2.6234   2.6247   2.6430   2.6530   2.6695   2.6765   2.6826   2.6952
  2.7020   2.7119   2.7197   2.7332   2.7348   2.7378   2.7637   2.7695
  2.7754   2.7818   2.7876   2.7925   2.8124   2.8346   2.8377   2.8696
  2.8771   2.8877   2.8988   2.9163   2.9268   2.9301   2.9518   2.9985
  3.0077   3.0280   3.0429   3.0899   3.1287   3.1467   3.1798   3.1849
  3.2119   3.2173   3.2354   3.2403   3.2463   3.2519   3.2591   3.2704
  3.2869   3.2976   3.3289   3.3401   3.3529   3.3724   3.3878   3.3988
  3.4429   3.4578   3.4768   3.4893   3.4955   3.5179   3.5222   3.7050
  3.8251   3.8616   3.9035   4.1101   4.1114   4.1299   4.1426   4.1509
  4.1525   4.1590   4.1803   4.1949   4.2096   4.2319   4.2527   4.2864
  4.3472   4.3907   4.4139   4.4335   4.4549   4.5232   4.5389   4.5508
  4.5912   4.6719   4.7851   4.8741   4.9188   4.9352
 --------------------------------------------------------------
 
          Ground-State Mulliken Net Atomic Charges

     Atom                 Charge (a.u.)
  ----------------------------------------
      1 C                     0.030371
      2 C                     0.057502
      3 C                    -0.013370
      4 C                     0.028553
      5 C                     0.035072
      6 C                    -0.121158
      7 C                    -0.097128
      8 C                    -0.092640
      9 C                    -0.137647
     10 H                     0.082142
     11 H                     0.081644
     12 H                     0.079671
     13 H                     0.081642
     14 C                    -0.124236
     15 C                    -0.119982
     16 C                    -0.096821
     17 C                    -0.093517
     18 H                     0.096107
     19 H                     0.080514
     20 H                     0.080917
     21 H                     0.080268
     22 C                    -0.011058
     23 C                    -0.124654
     24 C                     0.039660
     25 C                    -0.254222
     26 C                     0.049836
     27 H                     0.114056
     28 H                     0.121526
     29 C                    -0.124243
     30 C                    -0.125161
     31 C                     0.051037
     32 C                     0.100564
     33 H                     0.085654
     34 H                     0.088508
     35 C                    -0.136924
     36 C                    -0.114580
     37 C                    -0.098215
     38 C                    -0.086055
     39 H                     0.113571
     40 H                     0.091266
     41 H                     0.084510
     42 H                     0.086810
     43 H                     0.116565
     44 C                    -0.318355
     45 H                     0.109026
     46 H                     0.098875
     47 H                     0.124097
  ----------------------------------------
  Sum of atomic charges =    -0.000000

 -----------------------------------------------------------------
                    Cartesian Multipole Moments
 -----------------------------------------------------------------
    Charge (ESU x 10^10)
                -0.0000
    Dipole Moment (Debye)
         X       1.1872      Y      -1.4521      Z      -0.0371
       Tot       1.8760
    Quadrupole Moments (Debye-Ang)
        XX    -138.2334     XY      -5.1521     YY    -135.2290
        XZ       0.3910     YZ      -4.7069     ZZ    -157.5024
    Octopole Moments (Debye-Ang^2)
       XXX    -478.1177    XXY     219.0714    XYY    -155.8463
       YYY     682.8302    XXZ     -36.8377    XYZ     -16.5267
       YYZ      13.6087    XZZ    -172.6752    YZZ     261.5214
       ZZZ     -47.4676
    Hexadecapole Moments (Debye-Ang^3)
      XXXX   -7554.4475   XXXY    1182.7159   XXYY   -2292.3462
      XYYY    1267.7000   YYYY   -6204.4804   XXXZ     306.3192
      XXYZ      56.8355   XYYZ     229.7313   YYYZ     126.5128
      XXZZ   -1603.9571   XYZZ     509.0235   YYZZ   -1347.8451
      XZZZ     406.2911   YZZZ     193.8470   ZZZZ   -1280.3205
 -----------------------------------------------------------------
 Calculating analytic gradient of the SCF energy
 Gradient of SCF Energy
            1           2           3           4           5           6
    1  -0.0030056  -0.0016050   0.0047560   0.0040990   0.0012258  -0.0030384
    2  -0.0003623  -0.0027030  -0.0058097   0.0008450   0.0034565  -0.0016133
    3  -0.0016472  -0.0010493   0.0002623  -0.0008896   0.0015945  -0.0000048
            7           8           9          10          11          12
    1   0.0023947   0.0031763  -0.0017548  -0.0003582  -0.0009604  -0.0002661
    2   0.0011934   0.0008675   0.0014410   0.0004167   0.0002616  -0.0005632
    3   0.0007104   0.0009491   0.0005093   0.0000408  -0.0002733  -0.0000669
           13          14          15          16          17          18
    1   0.0005410   0.0020363  -0.0001384  -0.0018882  -0.0018604   0.0008217
    2  -0.0015831   0.0021307   0.0015048  -0.0018405  -0.0027936  -0.0008282
    3  -0.0002688   0.0001416  -0.0014570  -0.0006554  -0.0011362   0.0008631
           19          20          21          22          23          24
    1   0.0005973  -0.0003551  -0.0000119  -0.0027236  -0.0021809  -0.0000128
    2  -0.0000345   0.0005786   0.0010081   0.0052723  -0.0027517   0.0038497
    3   0.0001321  -0.0001591   0.0001995   0.0008791  -0.0010447  -0.0011671
           25          26          27          28          29          30
    1  -0.0013177   0.0003195   0.0001790  -0.0015515   0.0056360  -0.0005846
    2  -0.0079992  -0.0005997   0.0030500   0.0004619   0.0010647  -0.0046805
    3   0.0032132  -0.0021979   0.0015652  -0.0035535  -0.0002308   0.0039926
           31          32          33          34          35          36
    1  -0.0039107   0.0024572   0.0006965   0.0001022   0.0005598   0.0009694
    2   0.0035299   0.0003985  -0.0008184  -0.0008907   0.0028361   0.0003933
    3  -0.0009271  -0.0014240   0.0001633   0.0000308  -0.0016636   0.0014668
           37          38          39          40          41          42
    1  -0.0008515   0.0010984  -0.0023985  -0.0008943   0.0001309   0.0012964
    2  -0.0011623  -0.0010333   0.0006542   0.0006664   0.0002646   0.0000792
    3   0.0010225   0.0005401   0.0001422   0.0001706  -0.0004581  -0.0005973
           43          44          45          46          47
    1   0.0014355  -0.0023632  -0.0016703   0.0005189   0.0006540
    2   0.0014231  -0.0003592  -0.0017999   0.0032560  -0.0006776
    3   0.0028240   0.0033373  -0.0042299  -0.0008377   0.0011892
 Max gradient component =       7.999E-03
 RMS gradient           =       2.015E-03
 Gradient time:  CPU 191.32 s  wall 14.65 s
 Geometry Optimization Parameters
   NAtoms,    NIC,     NZ,  NCons,   NDum,   NFix, NCnnct, MaxDiis
       47     378       0       0       0       0       0       0

 Cartesian Hessian Update
 Hessian updated using BFGS update


** GEOMETRY OPTIMIZATION IN DELOCALIZED INTERNAL COORDINATES **
   Searching for a Minimum

   Optimization Cycle:   3

                       Coordinates (Angstroms)
     ATOM                X               Y               Z
      1  C        -1.6529887263   -0.3023012555    0.1700724440
      2  C        -1.2282093911   -1.6596486172    0.1768721426
      3  C         0.2427742009   -1.7102216690    0.3938782154
      4  C         0.6547226252   -0.2928036807    0.5680109793
      5  C        -0.4872297806    0.5458756854    0.4460682764
      6  C        -2.9850428869    0.0376197388   -0.0720824695
      7  C        -3.9037995930   -0.9745932489   -0.3367623924
      8  C        -3.4866993143   -2.3096261004   -0.3772572835
      9  C        -2.1597392374   -2.6576556211   -0.1332158913
     10  H        -3.3014182636    1.0778587060   -0.0650723666
     11  H        -4.9456018358   -0.7271806086   -0.5274033673
     12  H        -4.2070714416   -3.0914151684   -0.6050480470
     13  H        -1.8699235237   -3.7023386871   -0.1950343265
     14  C        -0.3934359853    1.9266867678    0.6274003130
     15  C         1.8694949261    0.2718450750    0.9694061043
     16  C         0.8394956874    2.4773169217    0.9686229350
     17  C         1.9536029335    1.6502024673    1.1539862790
     18  H         2.7403640426   -0.3475984898    1.1542305583
     19  H         2.9032435446    2.0866031732    1.4532872921
     20  H        -1.2701620199    2.5616083388    0.5234084696
     21  H         0.9327980800    3.5510756557    1.1151443702
     22  C         1.0177465134   -2.8417670663    0.4558551131
     23  C         0.4903990667   -4.2116891590    0.9481486345
     24  C         2.4518093737   -2.9991794629    0.1625260095
     25  C         1.7768010346   -5.0375102284    1.2548286058
     26  C         2.9041503687   -4.2278451858    0.6601973104
     27  H         1.7447902310   -6.0446620255    0.8371759011
     28  H         1.8916375644   -5.1541748084    2.3347026665
     29  C         4.2606470089   -4.6165042338    0.5829670427
     30  C         5.1586365361   -3.8012858339   -0.0608608474
     31  C         3.3428629804   -2.2074174092   -0.6535321963
     32  C         4.7281338486   -2.6115805645   -0.7243045695
     33  H         4.5852680041   -5.5572555451    1.0224435460
     34  H         6.2064257479   -4.0849064962   -0.1247543645
     35  C         5.6363570625   -1.8401446945   -1.5013493944
     36  C         2.9323214802   -1.1138311528   -1.4555870631
     37  C         3.8373119531   -0.4065677523   -2.2188242568
     38  C         5.2076185905   -0.7530990350   -2.2268298978
     39  H         1.8838300796   -0.8426157890   -1.4854238548
     40  H         3.4829117771    0.4263668085   -2.8207402016
     41  H         6.6797901992   -2.1434173470   -1.5354550624
     42  H         5.9159209401   -0.1835461998   -2.8242390089
     43  H        -0.0504861822   -4.7088591549    0.1385714911
     44  C        -0.4100107222   -4.1398048294    2.1953527788
     45  H         0.1433849248   -3.6734118060    3.0076389535
     46  H        -0.6895024118   -5.1451279443    2.5121797940
     47  H        -1.3239600103   -3.5688224674    2.0482306356
   Point Group: c1    Number of degrees of freedom:   135


   Energy is  -1040.966831793

 Hessian updated using BFGS update

135 Hessian modes will be used to form the next step
  Hessian Eigenvalues:
     0.002641    0.005620    0.011754    0.012268    0.016391    0.017242
     0.017784    0.018220    0.018975    0.019718    0.020068    0.020400
     0.020739    0.020940    0.021067    0.021631    0.021723    0.021803
     0.021921    0.021921    0.021926    0.021938    0.022010    0.022174
     0.022211    0.022231    0.022391    0.022426    0.022539    0.022641
     0.022683    0.022719    0.022819    0.023112    0.023156    0.023365
     0.023398    0.039994    0.043279    0.046742    0.050831    0.055168
     0.055598    0.061864    0.067513    0.087509    0.089813    0.132092
     0.153532    0.159662    0.159897    0.159919    0.159964    0.159967
     0.159973    0.159977    0.159980    0.159984    0.159992    0.159994
     0.159996    0.159997    0.160000    0.160112    0.161000    0.198070
     0.219911    0.219976    0.220023    0.223607    0.224499    0.225881
     0.226963    0.240383    0.242136    0.242694    0.244358    0.246731
     0.247317    0.248028    0.249203    0.250210    0.268695    0.275536
     0.288814    0.297360    0.312483    0.316195    0.322498    0.324232
     0.324735    0.325672    0.329237    0.337884    0.346249    0.354543
     0.355501    0.356171    0.356734    0.356969    0.357107    0.357135
     0.357224    0.357255    0.357551    0.357708    0.359213    0.363508
     0.365274    0.367366    0.375545    0.381693    0.394993    0.407300
     0.411607    0.412380    0.412906    0.424902    0.432835    0.444110
     0.445710    0.448348    0.449367    0.453259    0.453570    0.454401
     0.455588    0.456852    0.457894    0.458918    0.463723    0.467427
     0.468995    0.487877    0.542372

 Minimum search - taking simple RFO step
 Searching for Lamda that Minimizes Along All modes
 Value Taken    Lamda =  -0.00210609
 Step Taken.  Stepsize is  0.187217

                             Maximum     Tolerance    Cnvgd?
         Gradient           0.008007      0.000300      NO
         Displacement       0.089469      0.001200      NO
         Energy change     -0.004135      0.000001      NO


 New Cartesian Coordinates Obtained by Inverse Iteration

 Displacement from previous Coordinates is:  1.227699
 ----------------------------------------------------------------
             Standard Nuclear Orientation (Angstroms)
    I     Atom           X                Y                Z
 ----------------------------------------------------------------
    1      C      -1.6496856936    -0.2974863173     0.1733038680
    2      C      -1.2352162957    -1.6551272265     0.1505408305
    3      C       0.2306378947    -1.7173867276     0.3884770400
    4      C       0.6459610320    -0.3098510071     0.5992950209
    5      C      -0.4901813390     0.5324241224     0.4978054497
    6      C      -2.9691629958     0.0615860874    -0.0996261531
    7      C      -3.8913662756    -0.9335765970    -0.4228186234
    8      C      -3.4856074558    -2.2708837153    -0.4918515280
    9      C      -2.1662919953    -2.6355383178    -0.2178727659
   10      H      -3.2736724513     1.1043681223    -0.0741674633
   11      H      -4.9233117121    -0.6699686590    -0.6363111678
   12      H      -4.2047794408    -3.0379997993    -0.7650620413
   13      H      -1.8830107491    -3.6781835695    -0.3023705634
   14      C      -0.3955759436     1.9033052805     0.7354763306
   15      C       1.8629402677     0.2381819014     1.0205374242
   16      C       0.8370441294     2.4424323344     1.1058643568
   17      C       1.9518590265     1.6101494549     1.2607526268
   18      H       2.7342805621    -0.3888980816     1.1682297779
   19      H       2.9011586581     2.0349690119     1.5747637148
   20      H      -1.2715238957     2.5406372917     0.6501488083
   21      H       0.9295686961     3.5088332719     1.2913744472
   22      C       1.0126239319    -2.8496759617     0.4448755171
   23      C       0.5137385103    -4.2111147701     0.9772823513
   24      C       2.4469826713    -2.9948812935     0.1558306405
   25      C       1.8138431258    -4.9951631761     1.3183792842
   26      C       2.9201924681    -4.1916082301     0.6975561285
   27      H       1.8030247303    -6.0211330324     0.9341975719
   28      H       1.9358170873    -5.0724446166     2.4063184538
   29      C       4.2761691712    -4.5647838844     0.6247240207
   30      C       5.1617785225    -3.7566867763    -0.0485040424
   31      C       3.3240425364    -2.2217211141    -0.6906835679
   32      C       4.7110093577    -2.6020231244    -0.7465086676
   33      H       4.6133509437    -5.4826105268     1.0986842651
   34      H       6.2157234791    -4.0171305939    -0.1013511772
   35      C       5.6079173208    -1.8497368263    -1.5489678248
   36      C       2.8960849554    -1.1694661522    -1.5388569679
   37      C       3.7886867643    -0.4790765449    -2.3327317458
   38      C       5.1629282049    -0.8000683321    -2.3201198061
   39      H       1.8455925244    -0.9168450028    -1.5771441286
   40      H       3.4248013008     0.3179484244    -2.9745983115
   41      H       6.6559320234    -2.1380048287    -1.5639398834
   42      H       5.8597536825    -0.2404677228    -2.9371801131
[...]
  C      0.23063789     -1.71738673      0.38847704
  C      0.64596103     -0.30985101      0.59929502
  C     -0.49018134      0.53242412      0.49780545
  C     -2.96916300      0.06158609     -0.09962615
  C     -3.89136628     -0.93357660     -0.42281862
  C     -3.48560746     -2.27088372     -0.49185153
  C     -2.16629200     -2.63553832     -0.21787277
  H     -3.27367245      1.10436812     -0.07416746
  H     -4.92331171     -0.66996866     -0.63631117
  H     -4.20477944     -3.03799980     -0.76506204
  H     -1.88301075     -3.67818357     -0.30237056
  C     -0.39557594      1.90330528      0.73547633
  C      1.86294027      0.23818190      1.02053742
  C      0.83704413      2.44243233      1.10586436
  C      1.95185903      1.61014945      1.26075263
  H      2.73428056     -0.38889808      1.16822978
  H      2.90115866      2.03496901      1.57476371
  H     -1.27152390      2.54063729      0.65014881
  H      0.92956870      3.50883327      1.29137445
  C      1.01262393     -2.84967596      0.44487552
  C      0.51373851     -4.21111477      0.97728235
  C      2.44698267     -2.99488129      0.15583064
  C      1.81384313     -4.99516318      1.31837928
  C      2.92019247     -4.19160823      0.69755613
  H      1.80302473     -6.02113303      0.93419757
  H      1.93581709     -5.07244462      2.40631845
  C      4.27616917     -4.56478388      0.62472402
  C      5.16177852     -3.75668678     -0.04850404
  C      3.32404254     -2.22172111     -0.69068357
  C      4.71100936     -2.60202312     -0.74650867
  H      4.61335094     -5.48261053      1.09868427
  H      6.21572348     -4.01713059     -0.10135118
  C      5.60791732     -1.84973683     -1.54896782
  C      2.89608496     -1.16946615     -1.53885697
  C      3.78868676     -0.47907654     -2.33273175
  C      5.16292820     -0.80006833     -2.32011981
  H      1.84559252     -0.91684500     -1.57714413
  H      3.42480130      0.31794842     -2.97459831
  H      6.65593202     -2.13800483     -1.56393988
  H      5.85975368     -0.24046772     -2.93718011
  H     -0.01476858     -4.75051289      0.18021691
  C     -0.38321684     -4.12342504      2.22331761
  H      0.15063419     -3.60853456      3.02842821
  H     -0.63070437     -5.13106613      2.57400455
  H     -1.31603173     -3.58910415      2.04771132
  47
Step 5
  C     -1.64992739     -0.30041779      0.20254687
  C     -1.22188945     -1.65240944      0.17410134
  C      0.24431614     -1.69889240      0.38120946
  C      0.64998240     -0.28998842      0.59747394
  C     -0.49657219      0.53963074      0.51351929
  C     -2.97485025      0.04242685     -0.06082136
  C     -3.89006930     -0.96551991     -0.37029977
  C     -3.47250426     -2.29998787     -0.43243124
  C     -2.14478478     -2.64739713     -0.17205515
  H     -3.29054279      1.08169350     -0.03733059
  H     -4.92619756     -0.71347527     -0.57457100
  H     -4.18631548     -3.07654340     -0.69102721
  H     -1.84727827     -3.68695339     -0.24861474
  C     -0.41564100      1.90849139      0.76452078
  C      1.86698714      0.27085508      1.00333675
  C      0.81527959      2.46118362      1.12283103
  C      1.94340697      1.64282454      1.25323407
  H      2.74938986     -0.34474767      1.12467741
  H      2.89165325      2.07766536      1.55510122
  H     -1.30122375      2.53447043      0.70068747
  H      0.89512768      3.52632153      1.31807565
  C      1.02612990     -2.83321445      0.43100227
  C      0.51283599     -4.19520532      0.93688906
  C      2.45853577     -2.98821224      0.14779996
  C      1.80672115     -4.96672975      1.32652973
  C      2.92167498     -4.17966884      0.70598487
  H      1.80350637     -6.00321925      0.96531811
  H      1.91142723     -5.01996517      2.41976676
  C      4.27291640     -4.56368453      0.63969113
  C      5.16610352     -3.76807950     -0.04094823
  C      3.34316734     -2.22791565     -0.70122491
  C      4.72511040     -2.61778255     -0.74877411
  H      4.60118677     -5.47880280      1.12407410
  H      6.21890645     -4.03341948     -0.08819437
  C      5.63111325     -1.87946580     -1.55286179
  C      2.92558282     -1.17650140     -1.55641176
  C      3.82589991     -0.49920302     -2.35309075
  C      5.19698885     -0.83192563     -2.33352709
  H      1.87817295     -0.91306836     -1.59403969
  H      3.47283403      0.29500982     -3.00369833
  H      6.67707849     -2.17520994     -1.55791114
  H      5.89879655     -0.27996158     -2.95081527
  H      0.02044948     -4.73687451      0.11556225
  C     -0.44540699     -4.11285489      2.13505849
  H      0.03361564     -3.58041572      2.96576767
  H     -0.69452986     -5.12342601      2.48132319
  H     -1.37719395     -3.59678380      1.89999565
  47
Step 6
  C     -1.64227436     -0.29683741      0.18607039
  C     -1.21665231     -1.65050505      0.16282906
  C      0.24509114     -1.70204561      0.40035436
  C      0.65409224     -0.29189151      0.60858820
  C     -0.48985511      0.54118363      0.50807798
  C     -2.96167185      0.04954804     -0.10062846
  C     -3.87229611     -0.95528314     -0.43104291
  C     -3.45500441     -2.28963514     -0.49427490
  C     -2.13326406     -2.64087545     -0.21153888
  H     -3.27593204      1.08947661     -0.08170334
  H     -4.90370482     -0.70001531     -0.65529969
  H     -4.16427393     -3.06345005     -0.77305740
  H     -1.83486858     -3.68015427     -0.29293364
  C     -0.40816218      1.91131617      0.75273336
  C      1.86784682      0.26883029      1.02352275
  C      0.82009346      2.46247204      1.12015969
  C      1.94457788      1.64183749      1.26560304
  H      2.74716135     -0.34785011      1.16028578
  H      2.89071042      2.07564749      1.57566277
  H     -1.29124646      2.53974773      0.67668586
  H      0.90001113      3.52842115      1.31204666
  C      1.02422119     -2.83755011      0.46346642
  C      0.51370866     -4.19889444      0.98023210
  C      2.45430687     -2.99255836      0.16718934
  C      1.81293783     -4.97700076      1.34127174
  C      2.92176056     -4.19153235      0.70652588
  H      1.79869860     -6.01258833      0.97975300
  H      1.93550654     -5.03246268      2.43173180
  C      4.27061781     -4.58103289      0.61356796
  C      5.15530226     -3.78367414     -0.07588546
  C      3.32828026     -2.22630863     -0.68731307
  C      4.70760055     -2.62292645     -0.76418440
  H      4.60329771     -5.50267656      1.08286692
  H      6.20524397     -4.05549156     -0.14580615
  C      5.60274345     -1.87882561     -1.57668003
  C      2.90030757     -1.16078831     -1.51973741
  C      3.78983646     -0.47785453     -2.32331963
  C      5.15958679     -0.81928386     -2.33530457
  H      1.85345853     -0.89036577     -1.53269305
  H      3.42927934      0.32763113     -2.95591551
  H      6.64703164     -2.17912617     -1.60507948
  H      5.85291278     -0.26292602     -2.95870053
  H      0.00473646     -4.73799347      0.16788826
  C     -0.41626789     -4.12546939      2.20207248
  H      0.08172275     -3.59581772      3.02165541
  H     -0.65103550     -5.13789759      2.55063155
  H     -1.35620342     -3.61387303      1.99705576
  47
Step 7
  C     -1.64635640     -0.29641490      0.19508251
  C     -1.22371774     -1.65157708      0.15866446
  C      0.23993085     -1.70859280      0.38985008
  C      0.65370380     -0.30113412      0.60329168
  C     -0.48905247      0.53616381      0.51649333
  C     -2.96642053      0.05565091     -0.08262714
  C     -3.88064963     -0.94386507     -0.41740153
  C     -3.46650487     -2.27818925     -0.49545644
  C     -2.14487340     -2.63566905     -0.22164568
  H     -3.27874796      1.09602468     -0.05280147
  H     -4.91264167     -0.68411404     -0.63469890
  H     -4.17900781     -3.04756777     -0.77877678
  H     -1.84982659     -3.67470400     -0.31593609
  C     -0.40075181      1.90452621      0.76918246
  C      1.87274562      0.25291391      1.01017008
  C      0.83244266      2.44898644      1.12951699
  C      1.95558201      1.62387946      1.25950043
  H      2.75161846     -0.36784679      1.13545646
  H      2.90628213      2.05267060      1.56293817
  H     -1.28206313      2.53682392      0.70321008
  H      0.91762613      3.51367357      1.32711962
  C      1.02027004     -2.84319544      0.45041754
  C      0.51835688     -4.20576067      0.97356413
  C      2.45325497     -2.99027815      0.16209424
  C      1.82148938     -4.96368855      1.36172505
  C      2.92727335     -4.18076367      0.71703193
  H      1.81917503     -6.00791476      1.02820030
  H      1.93406912     -4.98927590      2.45377438
  C      4.27942040     -4.56228108      0.63350610
  C      5.16140501     -3.76602857     -0.05983351
  C      3.32703971     -2.22401751     -0.69359548
  C      4.70973307     -2.61358604     -0.76058697
  H      4.61690276     -5.47669197      1.11376518
  H      6.21304656     -4.03296583     -0.12349245
  C      5.60495300     -1.87035664     -1.57490142
  C      2.89753657     -1.16817101     -1.53788894
  C      3.78749820     -0.48662126     -2.34163802
  C      5.15974589     -0.81979321     -2.34383978
  H      1.84905618     -0.90528812     -1.56060671
  H      3.42535621      0.31159766     -2.98275196
  H      6.65105826     -2.16491004     -1.59613826
  H      5.85314517     -0.26476265     -2.96873872
  H      0.03227425     -4.75942567      0.15796634
  C     -0.43242020     -4.13732929      2.17911332
  H      0.04341367     -3.59279649      3.00092963
  H     -0.65457169     -5.15010111      2.53264510
  H     -1.37782944     -3.64458269      1.95557665
  47
Step 8
  C     -1.64390635     -0.29358450      0.20692105
  C     -1.22038698     -1.64812335      0.15896845
  C      0.24235022     -1.70724969      0.39223558
  C      0.65766780     -0.30086200      0.61099757
  C     -0.48612495      0.53662648      0.53310678
  C     -2.96361196      0.05950251     -0.07147424
  C     -3.87540079     -0.93800877     -0.41885431
  C     -3.45918592     -2.27074557     -0.51119834
  C     -2.13788149     -2.62916760     -0.23719876
  H     -3.27806727      1.09894494     -0.03231033
  H     -4.90704031     -0.67708607     -0.63668950
  H     -4.16957619     -3.03766833     -0.80637066
  H     -1.83884819     -3.66581826     -0.34506939
  C     -0.39750672      1.90331653      0.79454210
  C      1.87838606      0.25194023      1.01404218
  C      0.83711684      2.44648156      1.15205668
  C      1.96146118      1.62150560      1.27084829
  H      2.75870800     -0.36851919      1.13103936
  H      2.91384150      2.04916054      1.57072791
  H     -1.27932071      2.53567372      0.73601988
  H      0.92234020      3.51003089      1.35587574
  C      1.02254097     -2.84164861      0.45463722
  C      0.52671180     -4.20780534      0.97372186
  C      2.45637676     -2.98513689      0.16718845
  C      1.83370851     -4.93622991      1.40368050
  C      2.93542548     -4.16749662      0.73574689
  H      1.84251563     -5.99460566      1.11958802
  H      1.93663739     -4.90886734      2.49675856
  C      4.28693633     -4.54943001      0.64779535
  C      5.16345395     -3.76101891     -0.06157185
  C      3.32480548     -2.22522044     -0.69899811
  C      4.70704356     -2.61556188     -0.77066159
  H      4.62865939     -5.45767254      1.13671825
  H      6.21434819     -4.02950517     -0.13066510
  C      5.59775623     -1.87901194     -1.59661138
  C      2.89059723     -1.17442129     -1.54767033
  C      3.77607267     -0.49931367     -2.36127284
  C      5.14824917     -0.83404389     -2.37024017
  H      1.84229706     -0.91034811     -1.56499013
  H      3.41101597      0.29524490     -3.00536406
  H      6.64358830     -2.17408300     -1.62194664
  H      5.83772543     -0.28382218     -3.00376019
  H      0.08117002     -4.77660496      0.14513190
  C     -0.46272165     -4.16067776      2.14792838
  H     -0.03299182     -3.59272188      2.97907744
  H     -0.65862728     -5.17783912      2.50389489
  H     -1.41833874     -3.70585745      1.89109863
  47
Step 9
  C     -1.63971744     -0.29113151      0.22364283
  C     -1.21257563     -1.64313813      0.15503276
  C      0.24753207     -1.70381375      0.39506593
  C      0.66275396     -0.29859438      0.62490693
  C     -0.48337437      0.53710651      0.56016365
  C     -2.95942632      0.06154473     -0.05516982
  C     -3.86491440     -0.93339925     -0.42657960
  C     -3.44223203     -2.26212183     -0.54576292
  C     -2.12071143     -2.61969664     -0.27130312
  H     -3.27877619      1.09870886      0.00059669
  H     -4.89629491     -0.67232864     -0.64537854
  H     -4.14679742     -3.02524095     -0.86377970
  H     -1.81151203     -3.65056732     -0.40501812
  C     -0.39704180      1.90098542      0.83632227
  C      1.88420925      0.25341476      1.02649804
  C      0.83799157      2.44371142      1.19341239
  C      1.96516940      1.62067629      1.29681150
  H      2.76715991     -0.36532047      1.13151618
  H      2.91841887      2.04784079      1.59459455
  H     -1.28069416      2.53160395      0.78862722
  H      0.92135567      3.50520342      1.40822628
  C      1.02655461     -2.83798709      0.46105049
  C      0.53861706     -4.20682330      0.97872112
  C      2.46176709     -2.97800540      0.17517475
  C      1.84985459     -4.89093210      1.46686635
  C      2.94655110     -4.14823244      0.76296946
  H      1.87185882     -5.96630317      1.25832566
  H      1.93919654     -4.78304413      2.55665684
  C      4.29553127     -4.53486127      0.66442687
  C      5.16413409     -3.76050080     -0.07059647
  C      3.32168119     -2.22961402     -0.70781292
  C      4.70203400     -2.62395006     -0.78980123
  H      4.64222791     -5.43474732      1.16503654
  H      6.21322369     -4.03320756     -0.14970673
  C      5.58499588     -1.89917800     -1.63461940
  C      2.88074978     -1.18418978     -1.56004098
  C      3.75871050     -0.51989114     -2.39020220
  C      5.12948950     -0.86062699     -2.41324732
  H      1.83340137     -0.91537924     -1.56545647
  H      3.38935478      0.27083304     -3.03654703
  H      6.62960437     -2.19756312     -1.66899436
  H      5.81284052     -0.31891276     -3.06051371
  H      0.14964067     -4.79780361      0.13607273
  C     -0.50036163     -4.18632954      2.10901376
  H     -0.13776816     -3.58047161      2.94556652
  H     -0.65703491     -5.20589120      2.47773472
  H     -1.46740721     -3.78918066      1.80492759
  47
Step 10
  C     -1.63906516     -0.29228799      0.22249362
  C     -1.20999731     -1.64314885      0.15271804
  C      0.24941032     -1.70248257      0.39454307
  C      0.66271937     -0.29667642      0.62653810
  C     -0.48435206      0.53728355      0.56147782
  C     -2.95926023      0.05836355     -0.05644976
  C     -3.86246101     -0.93773948     -0.43076205
  C     -3.43711738     -2.26552079     -0.55251408
  C     -2.11507918     -2.62088543     -0.27721099
  H     -3.28042409      1.09486541      0.00059831
  H     -4.89418278     -0.67840596     -0.64976643
  H     -4.13967472     -3.02914338     -0.87360573
  H     -1.80243228     -3.65043096     -0.41422577
  C     -0.40037919      1.90114906      0.83838564
  C      1.88285500      0.25660826      1.03079996
  C      0.83333114      2.44537597      1.19778780
  C      1.96150611      1.62382397      1.30254731
  H      2.76642114     -0.36087417      1.13647526
  H      2.91351588      2.05222816      1.60239535
  H     -1.28498654      2.53030050      0.79021273
  H      0.91506064      3.50679626      1.41331499
  C      1.02743654     -2.83705154      0.46114952
  C      0.53722409     -4.20418252      0.98086296
  C      2.46265709     -2.97886404      0.17553573
  C      1.84855821     -4.88957626      1.46820401
  C      2.94578884     -4.14992745      0.76198228
  H      1.86827964     -5.96569386      1.26266185
  H      1.93934454     -4.77716405      2.55765774
  C      4.29318968     -4.54050381      0.65861490
  C      5.16195620     -3.76760930     -0.07794668
  C      3.32204448     -2.23158724     -0.70838790
  C      4.70131354     -2.62878398     -0.79404611
  H      4.63875499     -5.44188657      1.15719264
  H      6.21018153     -4.04276874     -0.15994741
  C      5.58382671     -1.90442410     -1.63919276
  C      2.88177974     -1.18288050     -1.55670027
  C      3.75945661     -0.51847813     -2.38733691
  C      5.12908666     -0.86274683     -2.41440802
  H      1.83514534     -0.91103653     -1.55848255
  H      3.39055680      0.27509720     -3.03036490
  H      6.62769191     -2.20510172     -1.67663277
  H      5.81253559     -0.32127736     -3.06166033
  H      0.14501636     -4.79609788      0.14009746
  C     -0.49733562     -4.17842860      2.11458031
  H     -0.13273215     -3.56521692      2.94512919
  H     -0.65083344     -5.19593280      2.49082005
  H     -1.46636157     -3.78442518      1.81229479
  47
Step 11
  C     -1.63861117     -0.29216032      0.22147976
  C     -1.20937774     -1.64279659      0.15179502
  C      0.24973760     -1.70238650      0.39560392
  C      0.66266240     -0.29646190      0.62769938
  C     -0.48415329      0.53749598      0.56141018
  C     -2.95890157      0.05825480     -0.05738614
  C     -3.86179667     -0.93800839     -0.43194868
  C     -3.43618826     -2.26577362     -0.55373295
  C     -2.11407942     -2.62083686     -0.27835757
  H     -3.28015280      1.09473468     -0.00050098
  H     -4.89364729     -0.67903775     -0.65069632
  H     -4.13866955     -3.02945397     -0.87479372
  H     -1.80105205     -3.65038828     -0.41470035
  C     -0.40015021      1.90152254      0.83751812
  C      1.88259545      0.25659544      1.03292957
  C      0.83329869      2.44561615      1.19800342
  C      1.96127484      1.62391352      1.30423222
  H      2.76584668     -0.36117807      1.13934580
  H      2.91295414      2.05235722      1.60502734
  H     -1.28464410      2.53073258      0.78827552
  H      0.91519983      3.50712929      1.41293657
  C      1.02764121     -2.83709936      0.46194727
  C      0.53686724     -4.20467024      0.98082648
  C      2.46281217     -2.97912326      0.17617390
  C      1.84860218     -4.88991648      1.46836254
  C      2.94588610     -4.15020471      0.76220224
  H      1.86857039     -5.96604760      1.26305791
  H      1.93908818     -4.77644017      2.55774573
  C      4.29302892     -4.54136109      0.65748506
  C      5.16151837     -3.76853554     -0.07944199
  C      3.32170785     -2.23173266     -0.70806751
  C      4.70096955     -2.62920859     -0.79471681
  H      4.63852027     -5.44322334      1.15521742
  H      6.20957838     -4.04407892     -0.16244188
  C      5.58300302     -1.90469799     -1.63992986
  C      2.88128660     -1.18275066     -1.55579579
  C      3.75868875     -0.51793091     -2.38654434
  C      5.12812618     -0.86240755     -2.41438940
  H      1.83464358     -0.91094747     -1.55725321
  H      3.38945169      0.27602984     -3.02886963
  H      6.62679867     -2.20558673     -1.67822090
  H      5.81156408     -0.32094186     -3.06162335
  H      0.14435623     -4.79674542      0.14032169
  C     -0.49682606     -4.17784352      2.11549986
  H     -0.13357997     -3.55949964      2.94292614
  H     -0.64705590     -5.19419046      2.49621736
  H     -1.46742320     -3.78806564      1.81260095

======= END OF MOLDEN-FORMATTED INPUT FILE =======


        *************************************************************
        *                                                           *
        *  Thank you very much for using Q-Chem.  Have a nice day.  *
        *                                                           *
        *************************************************************


0 sent ACK to 0 
now end server 0 ... 
