Process 0 of 1 is on gollum150.lsa.umich.edu - thread support 0
initial socket setup ...start
initial socket setup ...done 
now start server 0 ... 
                  Welcome to Q-Chem
     A Quantum Leap Into The Future Of Chemistry


 Q-Chem 5.2 (devel), Q-Chem, Inc., Pleasanton, CA (2019)

 Yihan Shao,  Zhengting Gan,  E. Epifanovsky,  A. T. B. Gilbert,  M. Wormit,  
 J. Kussmann,  A. W. Lange,  A. Behn,  Jia Deng,  Xintian Feng,  D. Ghosh,  
 M. Goldey,  P. R. Horn,  L. D. Jacobson,  I. Kaliman,  T. Kus,  A. Landau,  
 Jie Liu,  E. I. Proynov,  R. M. Richard,  R. P. Steele,  E. J. Sundstrom,  
 H. L. Woodcock III,  P. M. Zimmerman,  D. Zuev,  B. Albrecht,  E. Alguire,  
 S. A. Baeppler,  D. Barton,  Z. Benda,  Y. A. Bernard,  E. J. Berquist,  
 K. B. Bravaya,  H. Burton,  D. Casanova,  Chun-Min Chang,  Yunqing Chen,  
 A. Chien,  K. D. Closser,  M. P. Coons,  S. Coriani,  S. Dasgupta,  
 A. L. Dempwolff,  M. Diedenhofen,  Hainam Do,  R. G. Edgar,  Po-Tung Fang,  
 S. Faraji,  S. Fatehi,  Qingguo Feng,  K. D. Fenk,  J. Fosso-Tande,  
 J. Gayvert,  Qinghui Ge,  A. Ghysels,  G. Gidofalvi,  J. Gomes,  
 J. Gonthier,  A. Gunina,  D. Hait,  M. W. D. Hanson-Heine,  
 P. H. P. Harbach,  A. W. Hauser,  J. E. Herr,  E. G. Hohenstein,  
 Z. C. Holden,  Kerwin Hui,  B. C. Huynh,  T.-C. Jagau,  Hyunjun Ji,  
 B. Kaduk,  K. Khistyaev,  Jaehoon Kim,  P. Klunzinger,  K. Koh,  
 D. Kosenkov,  L. Koulias,  T. Kowalczyk,  C. M. Krauter,  A. Kunitsa,  
 Ka Un Lao,  A. Laurent,  K. V. Lawler,  Joonho Lee,  D. Lefrancois,  
 S. Lehtola,  D. S. Levine,  Yi-Pei Li,  You-Sheng Lin,  Fenglai Liu,  
 E. Livshits,  A. Luenser,  P. Manohar,  E. Mansoor,  S. F. Manzer,  
 Shan-Ping Mao,  Yuezhi Mao,  N. Mardirossian,  A. V. Marenich,  
 T. Markovich,  L. A. Martinez-Martinez,  S. A. Maurer,  N. J. Mayhall,  
 S. C. McKenzie,  J.-M. Mewes,  A. F. Morrison,  J. W. Mullinax,  K. Nanda,  
 T. S. Nguyen-Beck,  R. Olivares-Amaya,  J. A. Parkhill,  T. M. Perrine,  
 F. Plasser,  P. Pokhilko,  S. Prager,  A. Prociuk,  E. Ramos,  D. R. Rehn,  
 F. Rob,  M. Schneider,  N. Sergueev,  S. M. Sharada,  S. Sharma,  
 D. W. Small,  T. Stauch,  T. Stein,  Yu-Chuan Su,  A. J. W. Thom,  
 A. Tkatchenko,  T. Tsuchimochi,  N. M. Tubman,  L. Vogt,  M. L. Vidal,  
 O. Vydrov,  M. A. Watson,  J. Wenzel,  M. de Wergifosse,  T. A. Wesolowski,  
 A. White,  J. Witte,  A. Yamada,  Jun Yang,  K. Yao,  S. Yeganeh,  
 S. R. Yost,  Zhi-Qiang You,  A. Zech,  Igor Ying Zhang,  Xing Zhang,  
 Yan Zhao,  Ying Zhu,  B. R. Brooks,  G. K. L. Chan,  C. J. Cramer,  
 M. S. Gordon,  W. J. Hehre,  A. Klamt,  M. W. Schmidt,  C. D. Sherrill,  
 D. G. Truhlar,  A. Aspuru-Guzik,  R. Baer,  A. T. Bell,  N. A. Besley,  
 Jeng-Da Chai,  A. E. DePrince, III,  R. A. DiStasio Jr.,  A. Dreuw,  
 B. D. Dunietz,  T. R. Furlani,  Chao-Ping Hsu,  Yousung Jung,  Jing Kong,  
 D. S. Lambrecht,  WanZhen Liang,  C. Ochsenfeld,  V. A. Rassolov,  
 L. V. Slipchenko,  J. E. Subotnik,  T. Van Voorhis,  J. M. Herbert,  
 A. I. Krylov,  P. M. W. Gill,  M. Head-Gordon

 Contributors to earlier versions of Q-Chem not listed above: 
 R. D. Adamson,  B. Austin,  J. Baker,  G. J. O. Beran,  K. Brandhorst,  
 S. T. Brown,  E. F. C. Byrd,  A. K. Chakraborty,  C.-L. Cheng,  
 Siu Hung Chien,  D. M. Chipman,  D. L. Crittenden,  H. Dachsel,  
 R. J. Doerksen,  A. D. Dutoi,  L. Fusti-Molnar,  W. A. Goddard III,  
 A. Golubeva-Zadorozhnaya,  S. R. Gwaltney,  G. Hawkins,  A. Heyden,  
 S. Hirata,  G. Kedziora,  F. J. Keil,  C. Kelley,  Jihan Kim,  R. A. King,  
 R. Z. Khaliullin,  P. P. Korambath,  W. Kurlancheek,  A. M. Lee,  M. S. Lee,  
 S. V. Levchenko,  Ching Yeh Lin,  D. Liotard,  R. C. Lochan,  I. Lotan,  
 P. E. Maslen,  N. Nair,  D. P. O'Neill,  D. Neuhauser,  E. Neuscamman,  
 C. M. Oana,  R. Olson,  B. Peters,  R. Peverati,  P. A. Pieniazek,  
 Y. M. Rhee,  J. Ritchie,  M. A. Rohrdanz,  E. Rosta,  N. J. Russ,  
 H. F. Schaefer III,  N. E. Schultz,  N. Shenvi,  A. C. Simmonett,  A. Sodt,  
 D. Stuck,  K. S. Thanthiriwatte,  V. Vanovschi,  Tao Wang,  A. Warshel,  
 C. F. Williams,  Q. Wu,  X. Xu,  W. Zhang

 Please cite Q-Chem as follows:
 Y. Shao et al., Mol. Phys. 113, 184-215 (2015)
 DOI: 10.1080/00268976.2014.952696

 Q-Chem 5.2.0 for Intel X86 EM64T Linux

 Parts of Q-Chem use Armadillo 8.300.2 (Tropical Shenanigans).
 http://arma.sourceforge.net/

 Q-Chem begins on Mon Dec  9 15:28:11 2019  

Host: gollum150.lsa.umich.edu
0

     Scratch files written to /scratch/craldaz/830064/qchem13762//
 Parallel job on  1  processors

Checking the input file for inconsistencies... 	...done.

--------------------------------------------------------------
User input:
--------------------------------------------------------------
 $rem
 JOBTYPE OPT
 EXCHANGE B3LYP
 SCF_ALGORITHM diis
 SCF_MAX_CYCLES 300
 BASIS 6-31G**
 GEOM_OPT_MAX_CYCLES 300
 scf_convergence 8
 SYM_IGNORE TRUE
 SYMMETRY   FALSE

molden_format true
 $end

$molecule
0 1
C         -1.83718       -0.41677        0.01345
C         -1.43500       -1.74596        0.02593
C          0.05069       -1.80271        0.23079
C          0.43663       -0.36579        0.40459
C         -0.68780        0.43071        0.25465
C         -3.16526       -0.04015       -0.19749
C         -4.11435       -1.04174       -0.43041
C         -3.72380       -2.38940       -0.46345
C         -2.38411       -2.74902       -0.24929
H         -3.46069        1.00057       -0.18955
H         -5.14938       -0.77524       -0.60064
H         -4.46034       -3.15632       -0.66571
H         -2.12567       -3.79103       -0.31361
C         -0.64238        1.82030        0.38787
C          1.64428        0.22958        0.81080
C          0.57858        2.41874        0.72121
C          1.71402        1.62453        0.94721
H          2.52026       -0.35559        1.03669
H          2.64519        2.09001        1.24323
H         -1.52994        2.42545        0.25972
H          0.63915        3.49298        0.83781
C          0.85908       -2.91472        0.31697
C          0.34684       -4.29088        0.75345
C          2.34102       -3.03728        0.12501
C          1.62817       -5.11474        1.06070
C          2.74701       -4.26291        0.61467
H          1.60134       -6.08297        0.51569
H          1.81148       -5.32420        2.13040
C          4.08238       -4.65945        0.64264
C          5.05377       -3.82212        0.10413
C          3.30364       -2.23805       -0.57167
C          4.67635       -2.63258       -0.53652
H          4.36373       -5.61655        1.06357
H          6.09015       -4.13837        0.12334
C          5.65540       -1.85946       -1.18089
C          2.96804       -1.11815       -1.36098
C          3.95176       -0.36624       -2.00700
C          5.29284       -0.72440       -1.90226
H          1.94762       -0.81780       -1.51147
H          3.66995        0.49557       -2.59835
H          6.69971       -2.14724       -1.14724
H          6.05025       -0.13879       -2.40720
H         -0.18733       -4.74042       -0.10866
C         -0.56721       -4.25870        2.04068
C         -1.04966       -5.66806        2.41783
H         -1.58636       -6.12638        1.56004
H         -1.75379       -5.61520        3.27568
H         -0.20651       -6.32927        2.70507
C          0.07358       -3.55745        3.25825
H          0.97058       -4.07746        3.64400
H         -0.66002       -3.51074        4.09140
H          0.35366       -2.51432        3.00312
H         -1.47817       -3.67973        1.84087
$end
--------------------------------------------------------------
 ----------------------------------------------------------------
             Standard Nuclear Orientation (Angstroms)
    I     Atom           X                Y                Z
 ----------------------------------------------------------------
    1      C      -1.8371800000    -0.4167700000     0.0134500000
    2      C      -1.4350000000    -1.7459600000     0.0259300000
    3      C       0.0506900000    -1.8027100000     0.2307900000
    4      C       0.4366300000    -0.3657900000     0.4045900000
    5      C      -0.6878000000     0.4307100000     0.2546500000
    6      C      -3.1652600000    -0.0401500000    -0.1974900000
    7      C      -4.1143500000    -1.0417400000    -0.4304100000
    8      C      -3.7238000000    -2.3894000000    -0.4634500000
    9      C      -2.3841100000    -2.7490200000    -0.2492900000
   10      H      -3.4606900000     1.0005700000    -0.1895500000
   11      H      -5.1493800000    -0.7752400000    -0.6006400000
   12      H      -4.4603400000    -3.1563200000    -0.6657100000
   13      H      -2.1256700000    -3.7910300000    -0.3136100000
   14      C      -0.6423800000     1.8203000000     0.3878700000
   15      C       1.6442800000     0.2295800000     0.8108000000
   16      C       0.5785800000     2.4187400000     0.7212100000
   17      C       1.7140200000     1.6245300000     0.9472100000
   18      H       2.5202600000    -0.3555900000     1.0366900000
   19      H       2.6451900000     2.0900100000     1.2432300000
   20      H      -1.5299400000     2.4254500000     0.2597200000
   21      H       0.6391500000     3.4929800000     0.8378100000
   22      C       0.8590800000    -2.9147200000     0.3169700000
   23      C       0.3468400000    -4.2908800000     0.7534500000
   24      C       2.3410200000    -3.0372800000     0.1250100000
   25      C       1.6281700000    -5.1147400000     1.0607000000
   26      C       2.7470100000    -4.2629100000     0.6146700000
   27      H       1.6013400000    -6.0829700000     0.5156900000
   28      H       1.8114800000    -5.3242000000     2.1304000000
   29      C       4.0823800000    -4.6594500000     0.6426400000
   30      C       5.0537700000    -3.8221200000     0.1041300000
   31      C       3.3036400000    -2.2380500000    -0.5716700000
   32      C       4.6763500000    -2.6325800000    -0.5365200000
   33      H       4.3637300000    -5.6165500000     1.0635700000
   34      H       6.0901500000    -4.1383700000     0.1233400000
   35      C       5.6554000000    -1.8594600000    -1.1808900000
   36      C       2.9680400000    -1.1181500000    -1.3609800000
   37      C       3.9517600000    -0.3662400000    -2.0070000000
   38      C       5.2928400000    -0.7244000000    -1.9022600000
   39      H       1.9476200000    -0.8178000000    -1.5114700000
   40      H       3.6699500000     0.4955700000    -2.5983500000
   41      H       6.6997100000    -2.1472400000    -1.1472400000
   42      H       6.0502500000    -0.1387900000    -2.4072000000
   43      H      -0.1873300000    -4.7404200000    -0.1086600000
   44      C      -0.5672100000    -4.2587000000     2.0406800000
   45      C      -1.0496600000    -5.6680600000     2.4178300000
   46      H      -1.5863600000    -6.1263800000     1.5600400000
   47      H      -1.7537900000    -5.6152000000     3.2756800000
   48      H      -0.2065100000    -6.3292700000     2.7050700000
   49      C       0.0735800000    -3.5574500000     3.2582500000
   50      H       0.9705800000    -4.0774600000     3.6440000000
   51      H      -0.6600200000    -3.5107400000     4.0914000000
   52      H       0.3536600000    -2.5143200000     3.0031200000
   53      H      -1.4781700000    -3.6797300000     1.8408700000
 ----------------------------------------------------------------
 Nuclear Repulsion Energy =  2612.6870727777 hartrees
 There are       99 alpha and       99 beta electrons
 Requested basis set is 6-31G(d,p)
 There are 188 shells and 555 basis functions

 Total QAlloc Memory Limit   2000 MB
 Mega-Array Size       188 MB
 MEM_STATIC part       192 MB
 A cutoff of  1.0D-11 yielded   9598 shell pairs
 There are     89550 function pairs
 
 -------------------------------------------------------
 OpenMP Integral Computing Module                       
 Release: version 1.0, May 2013, Q-Chem Inc. Pittsburgh 
 -------------------------------------------------------
 Integral Job Info:
 Integral job number is                      11
 Integral operator is                         1
 short-range coefficients                     0
 long-range coefficients              100000000
 Omega coefficients                           0
 if combine SR and LR in K                    0
 Integral screening is                        0
 Integral computing path is                   2
 max size of driver memory is            800000
 size of driver memory is                593474
 size of scratch memory is              2361544
 max col of scratch BK array               1296
 max len of scratch array in speh3          155
 max len of scratch index in speh4           18
 max int batch size is                      520
 min int batch size is                       52
 fixed nKL is                                52
 max L of basis functions is                  2
 order of int derivative is                   0
 number of shells is                        188
 number of basis is                         555
 number of cartesian basis is               555
 number of contracted shell pairs          9598
 number of primitive shell pairs          27832
 maxK2 (contraction) of shell pair           36
 max number of K2 of shell pair               1
 max number of CS2 of shell pair            902
 max number of PS2 of shell pair           4830
 mem total for path MDJ                  679660
 -------------------------------------------------------
 Smallest overlap matrix eigenvalue = 2.21E-04

 Scale SEOQF with 1.000000e-02/1.000000e-02/1.000000e-01

 Standard Electronic Orientation quadrupole field applied
 Nucleus-field energy     =    -0.0000000155 hartrees
 Guess from superposition of atomic densities
 Warning:  Energy on first SCF cycle will be non-variational
 SAD guess density has 198.000001 electrons

 -----------------------------------------------------------------------
  General SCF calculation program by
  Eric Jon Sundstrom, Paul Horn, Yuezhi Mao, Dmitri Zuev, Alec White,
  David Stuck, Shaama M.S., Shane Yost, Joonho Lee, David Small,
  Daniel Levine, Susi Lehtola, Hugh Burton, Evgeny Epifanovsky
 -----------------------------------------------------------------------
 Exchange:     0.2000 Hartree-Fock + 0.0800 Slater + 0.7200 B88
 Correlation:  0.1900 VWN1RPA + 0.8100 LYP
 Using SG-1 standard quadrature grid
 using 14 threads for integral computing
 -------------------------------------------------------
 OpenMP Integral computing Module                
 Release: version 1.0, May 2013, Q-Chem Inc. Pittsburgh 
 -------------------------------------------------------
 -------------------------------------------------------
 OpenMP BLAS3 based DFT computing Module                
 Release: version 1.0, May 2013, Q-Chem Inc. Pittsburgh 
 -------------------------------------------------------
 A restricted SCF calculation will be
 performed using DIIS
 SCF converges when DIIS error is below 1.0e-08
 ---------------------------------------
  Cycle       Energy         DIIS error
 ---------------------------------------
    1   -1126.7459754640      3.21e-02  
    2   -1119.2202979922      2.88e-03  
    3   -1119.2315259262      2.90e-03  
    4   -1119.5687303233      6.14e-04  
    5   -1119.5801948150      3.32e-04  
    6   -1119.5849049144      9.62e-05  
    7   -1119.5852552247      3.43e-05  
    8   -1119.5852991681      1.30e-05  
    9   -1119.5853062576      2.00e-06  
   10   -1119.5853063910      9.57e-07  
   11   -1119.5853064273      2.79e-07  
   12   -1119.5853064301      1.38e-07  
   13   -1119.5853064309      5.12e-08  
   14   -1119.5853064310      1.79e-08  
   15   -1119.5853064310      5.96e-09  Convergence criterion met
 ---------------------------------------
 SCF time:   CPU 949.16s  wall 68.00s 
 SCF   energy in the final basis set =    -1119.5853064310
 Total energy in the final basis set =    -1119.5853064310
 
 --------------------------------------------------------------
 
                    Orbital Energies (a.u.)
 --------------------------------------------------------------
 
 Alpha MOs
 -- Occupied --
-10.2098 -10.2002 -10.2000 -10.1989 -10.1970 -10.1969 -10.1964 -10.1947
-10.1908 -10.1906 -10.1902 -10.1884 -10.1880 -10.1879 -10.1879 -10.1863
-10.1846 -10.1844 -10.1840 -10.1837 -10.1837 -10.1822 -10.1816 -10.1811
-10.1805 -10.1802 -10.1782 -10.1766 -10.1717  -0.8910  -0.8807  -0.8511
 -0.8340  -0.8126  -0.7924  -0.7824  -0.7647  -0.7558  -0.7409  -0.7322
 -0.7120  -0.7061  -0.6996  -0.6737  -0.6594  -0.6301  -0.6220  -0.6104
 -0.5920  -0.5882  -0.5775  -0.5638  -0.5555  -0.5322  -0.5183  -0.5059
 -0.4921  -0.4851  -0.4792  -0.4727  -0.4630  -0.4535  -0.4501  -0.4371
 -0.4322  -0.4284  -0.4225  -0.4160  -0.4124  -0.4114  -0.4062  -0.4054
 -0.3996  -0.3941  -0.3894  -0.3829  -0.3781  -0.3731  -0.3660  -0.3583
 -0.3499  -0.3480  -0.3422  -0.3385  -0.3349  -0.3301  -0.3265  -0.3249
 -0.3209  -0.3107  -0.3088  -0.2975  -0.2822  -0.2688  -0.2417  -0.2404
 -0.2213  -0.2080  -0.1898
 -- Virtual --
 -0.0713  -0.0286  -0.0151  -0.0078   0.0126   0.0345   0.0507   0.0704
  0.0772   0.0943   0.0999   0.1022   0.1079   0.1155   0.1227   0.1311
  0.1387   0.1425   0.1470   0.1475   0.1603   0.1656   0.1678   0.1711
  0.1769   0.1795   0.1826   0.1847   0.1925   0.1983   0.2006   0.2025
  0.2036   0.2125   0.2153   0.2190   0.2300   0.2338   0.2388   0.2488
  0.2513   0.2580   0.2637   0.2704   0.2750   0.2898   0.2961   0.3044
  0.3069   0.3155   0.3178   0.3224   0.3373   0.3483   0.3658   0.3716
  0.3873   0.3952   0.4049   0.4144   0.4350   0.4677   0.4711   0.4789
  0.4901   0.5040   0.5077   0.5123   0.5173   0.5250   0.5257   0.5331
  0.5372   0.5408   0.5448   0.5464   0.5541   0.5560   0.5598   0.5634
  0.5680   0.5726   0.5761   0.5777   0.5807   0.5857   0.5889   0.5962
  0.5999   0.6007   0.6064   0.6070   0.6116   0.6138   0.6148   0.6161
  0.6205   0.6228   0.6283   0.6349   0.6419   0.6446   0.6495   0.6537
  0.6575   0.6629   0.6657   0.6676   0.6746   0.6809   0.6848   0.7008
  0.7038   0.7087   0.7185   0.7204   0.7444   0.7517   0.7626   0.7751
  0.7915   0.7950   0.7992   0.8054   0.8131   0.8158   0.8199   0.8237
  0.8259   0.8309   0.8313   0.8341   0.8361   0.8477   0.8519   0.8527
  0.8621   0.8633   0.8661   0.8759   0.8769   0.8817   0.8943   0.8999
  0.9075   0.9127   0.9165   0.9199   0.9315   0.9357   0.9379   0.9398
  0.9454   0.9536   0.9561   0.9728   0.9805   0.9918   0.9961   0.9978
  1.0055   1.0196   1.0224   1.0286   1.0412   1.0476   1.0579   1.0692
  1.0746   1.0805   1.0892   1.1139   1.1203   1.1262   1.1343   1.1363
  1.1532   1.1579   1.1699   1.1841   1.1951   1.2119   1.2220   1.2312
  1.2457   1.2563   1.2641   1.2762   1.2810   1.2863   1.2918   1.2996
  1.3106   1.3198   1.3407   1.3490   1.3610   1.3692   1.3714   1.3851
  1.3889   1.3929   1.3963   1.4057   1.4164   1.4191   1.4212   1.4278
  1.4315   1.4390   1.4491   1.4621   1.4685   1.4736   1.4810   1.5018
  1.5070   1.5289   1.5320   1.5560   1.5698   1.5923   1.5992   1.6185
  1.6321   1.6451   1.6635   1.6760   1.7009   1.7250   1.7344   1.7464
  1.7608   1.7664   1.7702   1.7821   1.7863   1.7927   1.7958   1.7990
  1.8093   1.8151   1.8236   1.8358   1.8422   1.8539   1.8656   1.8672
  1.8711   1.8804   1.8817   1.8891   1.8896   1.8998   1.9086   1.9158
  1.9224   1.9309   1.9381   1.9426   1.9505   1.9526   1.9585   1.9630
  1.9732   1.9832   1.9860   1.9975   2.0005   2.0030   2.0094   2.0128
  2.0152   2.0295   2.0345   2.0370   2.0458   2.0508   2.0585   2.0617
  2.0687   2.0829   2.0876   2.0966   2.0976   2.1186   2.1302   2.1339
  2.1473   2.1484   2.1587   2.1669   2.1828   2.2023   2.2080   2.2199
  2.2311   2.2316   2.2530   2.2651   2.2730   2.2781   2.2822   2.2875
  2.2946   2.3098   2.3129   2.3226   2.3333   2.3402   2.3505   2.3539
  2.3631   2.3681   2.3823   2.3887   2.3904   2.3934   2.3999   2.4017
  2.4072   2.4124   2.4179   2.4406   2.4548   2.4555   2.4616   2.4698
  2.4728   2.4780   2.4854   2.4888   2.4943   2.4977   2.5067   2.5116
  2.5257   2.5282   2.5450   2.5466   2.5582   2.5722   2.5738   2.5763
  2.5838   2.5954   2.6022   2.6081   2.6104   2.6195   2.6258   2.6315
  2.6478   2.6575   2.6616   2.6651   2.6788   2.6832   2.6871   2.6949
  2.7006   2.7124   2.7142   2.7364   2.7392   2.7429   2.7439   2.7567
  2.7651   2.7747   2.7805   2.7860   2.7908   2.8050   2.8230   2.8376
  2.8551   2.8756   2.8793   2.8827   2.8880   2.9034   2.9167   2.9273
  2.9372   2.9588   2.9741   3.0058   3.0152   3.0446   3.0490   3.0929
  3.1319   3.1501   3.1653   3.1885   3.1958   3.2083   3.2233   3.2297
  3.2520   3.2583   3.2634   3.2674   3.2809   3.2902   3.3142   3.3384
  3.3478   3.3505   3.3562   3.3916   3.3923   3.4110   3.4158   3.4420
  3.4511   3.4611   3.4840   3.4905   3.5078   3.5333   3.5495   3.7424
  3.8282   3.8720   3.9111   4.1228   4.1269   4.1391   4.1436   4.1482
  4.1526   4.1635   4.1795   4.1989   4.2091   4.2323   4.2552   4.2886
  4.3162   4.3944   4.4109   4.4334   4.4581   4.5048   4.5296   4.5527
  4.5626   4.5946   4.6556   4.7076   4.8125   4.8806   4.9290   4.9561
 --------------------------------------------------------------
 
          Ground-State Mulliken Net Atomic Charges

     Atom                 Charge (a.u.)
  ----------------------------------------
      1 C                     0.027781
      2 C                     0.069059
      3 C                    -0.016635
      4 C                     0.041167
      5 C                     0.032830
      6 C                    -0.116357
      7 C                    -0.098670
      8 C                    -0.092746
      9 C                    -0.142277
     10 H                     0.082572
     11 H                     0.081105
     12 H                     0.080708
     13 H                     0.084347
     14 C                    -0.118859
     15 C                    -0.133663
     16 C                    -0.099956
     17 C                    -0.091596
     18 H                     0.099002
     19 H                     0.081880
     20 H                     0.080452
     21 H                     0.079527
     22 C                    -0.020443
     23 C                    -0.123643
     24 C                     0.052743
     25 C                    -0.255478
     26 C                     0.052772
     27 H                     0.113451
     28 H                     0.120713
     29 C                    -0.125476
     30 C                    -0.135222
     31 C                     0.054013
     32 C                     0.120366
     33 H                     0.081815
     34 H                     0.088906
     35 C                    -0.144006
     36 C                    -0.136130
     37 C                    -0.089802
     38 C                    -0.088326
     39 H                     0.113101
     40 H                     0.090526
     41 H                     0.086036
     42 H                     0.083705
     43 H                     0.108725
     44 C                    -0.057918
     45 C                    -0.307856
     46 H                     0.091780
     47 H                     0.100023
     48 H                     0.098488
     49 C                    -0.319908
     50 H                     0.092245
     51 H                     0.100215
     52 H                     0.116685
     53 H                     0.108227
  ----------------------------------------
  Sum of atomic charges =     0.000000

 -----------------------------------------------------------------
                    Cartesian Multipole Moments
 -----------------------------------------------------------------
    Charge (ESU x 10^10)
                 0.0000
    Dipole Moment (Debye)
         X       1.0952      Y      -1.2402      Z      -0.0091
       Tot       1.6546
    Quadrupole Moments (Debye-Ang)
        XX    -151.0340     XY      -4.5589     YY    -149.9319
        XZ       0.6333     YZ      -4.0078     ZZ    -171.4345
    Octopole Moments (Debye-Ang^2)
       XXX    -397.0064    XXY     291.2253    XYY    -128.0217
       YYY     907.4419    XXZ     -62.0975    XYZ     -17.2642
       YYZ     -26.4214    XZZ    -150.2771    YZZ     332.1547
       ZZZ    -137.0425
    Hexadecapole Moments (Debye-Ang^3)
      XXXX   -7663.1413   XXXY     985.1465   XXYY   -2657.5364
      XYYY    1028.8689   YYYY   -8381.4136   XXXZ     308.3141
      XXYZ     213.9198   XYYZ     221.7911   YYYZ     713.6845
      XXZZ   -1730.7180   XYZZ     439.4101   YYZZ   -1778.6879
      XZZZ     358.4859   YZZZ     730.5129   ZZZZ   -1766.6510
 -----------------------------------------------------------------
 Calculating analytic gradient of the SCF energy
 Gradient of SCF Energy
            1           2           3           4           5           6
    1   0.0141831  -0.0100830   0.0001099  -0.0223027   0.0145734   0.0036979
    2  -0.0189621   0.0283497  -0.0078341   0.0161967  -0.0197809   0.0111056
    3   0.0015363   0.0006813  -0.0015895  -0.0029652   0.0013801   0.0021784
            7           8           9          10          11          12
    1  -0.0051723  -0.0081091   0.0077918   0.0001189   0.0027281   0.0012226
    2  -0.0008238  -0.0049043  -0.0092183  -0.0027196  -0.0004600   0.0020978
    3  -0.0010310  -0.0006822   0.0016248   0.0001161   0.0000853   0.0003358
           13          14          15          16          17          18
    1  -0.0036389  -0.0109932   0.0035871   0.0022803   0.0081901  -0.0016359
    2   0.0049378  -0.0005210  -0.0089566   0.0051543   0.0062447   0.0025309
    3  -0.0007674  -0.0034076  -0.0019506   0.0007450   0.0009772  -0.0000471
           19          20          21          22          23          24
    1  -0.0022930   0.0025965  -0.0004088  -0.0095324   0.0043248   0.0188211
    2  -0.0004245  -0.0010801  -0.0028270  -0.0064824  -0.0007754  -0.0047418
    3  -0.0007751   0.0003889   0.0002089   0.0030971  -0.0144178  -0.0007788
           25          26          27          28          29          30
    1   0.0054257  -0.0045149  -0.0041243   0.0112493  -0.0219081   0.0117934
    2   0.0125719   0.0048725  -0.0063638   0.0033134  -0.0077168   0.0242094
    3   0.0022722   0.0042591  -0.0076215   0.0047720   0.0071751  -0.0131242
           31          32          33          34          35          36
    1   0.0085292  -0.0056738   0.0000521  -0.0026738   0.0003353  -0.0126358
    2  -0.0086916  -0.0006469   0.0023448  -0.0026762  -0.0219385  -0.0116475
    3   0.0043580  -0.0008904  -0.0014895   0.0007033   0.0148630   0.0131409
           37          38          39          40          41          42
    1   0.0161990  -0.0142633   0.0049191   0.0019265  -0.0007069  -0.0023930
    2   0.0075977   0.0118507   0.0025632  -0.0012513   0.0031733  -0.0013872
    3  -0.0059329  -0.0065640  -0.0021641   0.0014143  -0.0020708   0.0007286
           43          44          45          46          47          48
    1  -0.0006119   0.0056412   0.0028126  -0.0044476  -0.0065968   0.0080090
    2   0.0013606  -0.0018160   0.0054679  -0.0007940   0.0016235  -0.0037682
    3  -0.0096450  -0.0009423   0.0010468  -0.0083986   0.0077857   0.0022138
           49          50          51          52          53
    1  -0.0022746   0.0052357  -0.0064608   0.0012698  -0.0041687
    2  -0.0069036  -0.0029706   0.0009416   0.0097333   0.0008422
    3  -0.0018667   0.0028884   0.0078311  -0.0038909   0.0042057
 Max gradient component =       2.835E-02
 RMS gradient           =       7.749E-03
 Gradient time:  CPU 231.58 s  wall 17.29 s
 Geometry Optimization Parameters
   NAtoms,    NIC,     NZ,  NCons,   NDum,   NFix, NCnnct, MaxDiis
       53     426       0       0       0       0       0       0


** GEOMETRY OPTIMIZATION IN DELOCALIZED INTERNAL COORDINATES **
   Searching for a Minimum

   Optimization Cycle:   1

                       Coordinates (Angstroms)
     ATOM                X               Y               Z
      1  C        -1.8371800000   -0.4167700000    0.0134500000
      2  C        -1.4350000000   -1.7459600000    0.0259300000
      3  C         0.0506900000   -1.8027100000    0.2307900000
      4  C         0.4366300000   -0.3657900000    0.4045900000
      5  C        -0.6878000000    0.4307100000    0.2546500000
      6  C        -3.1652600000   -0.0401500000   -0.1974900000
      7  C        -4.1143500000   -1.0417400000   -0.4304100000
      8  C        -3.7238000000   -2.3894000000   -0.4634500000
      9  C        -2.3841100000   -2.7490200000   -0.2492900000
     10  H        -3.4606900000    1.0005700000   -0.1895500000
     11  H        -5.1493800000   -0.7752400000   -0.6006400000
     12  H        -4.4603400000   -3.1563200000   -0.6657100000
     13  H        -2.1256700000   -3.7910300000   -0.3136100000
     14  C        -0.6423800000    1.8203000000    0.3878700000
     15  C         1.6442800000    0.2295800000    0.8108000000
     16  C         0.5785800000    2.4187400000    0.7212100000
     17  C         1.7140200000    1.6245300000    0.9472100000
     18  H         2.5202600000   -0.3555900000    1.0366900000
     19  H         2.6451900000    2.0900100000    1.2432300000
     20  H        -1.5299400000    2.4254500000    0.2597200000
     21  H         0.6391500000    3.4929800000    0.8378100000
     22  C         0.8590800000   -2.9147200000    0.3169700000
     23  C         0.3468400000   -4.2908800000    0.7534500000
     24  C         2.3410200000   -3.0372800000    0.1250100000
     25  C         1.6281700000   -5.1147400000    1.0607000000
     26  C         2.7470100000   -4.2629100000    0.6146700000
     27  H         1.6013400000   -6.0829700000    0.5156900000
     28  H         1.8114800000   -5.3242000000    2.1304000000
     29  C         4.0823800000   -4.6594500000    0.6426400000
     30  C         5.0537700000   -3.8221200000    0.1041300000
     31  C         3.3036400000   -2.2380500000   -0.5716700000
     32  C         4.6763500000   -2.6325800000   -0.5365200000
     33  H         4.3637300000   -5.6165500000    1.0635700000
     34  H         6.0901500000   -4.1383700000    0.1233400000
     35  C         5.6554000000   -1.8594600000   -1.1808900000
     36  C         2.9680400000   -1.1181500000   -1.3609800000
     37  C         3.9517600000   -0.3662400000   -2.0070000000
     38  C         5.2928400000   -0.7244000000   -1.9022600000
     39  H         1.9476200000   -0.8178000000   -1.5114700000
     40  H         3.6699500000    0.4955700000   -2.5983500000
     41  H         6.6997100000   -2.1472400000   -1.1472400000
     42  H         6.0502500000   -0.1387900000   -2.4072000000
     43  H        -0.1873300000   -4.7404200000   -0.1086600000
     44  C        -0.5672100000   -4.2587000000    2.0406800000
     45  C        -1.0496600000   -5.6680600000    2.4178300000
     46  H        -1.5863600000   -6.1263800000    1.5600400000
     47  H        -1.7537900000   -5.6152000000    3.2756800000
     48  H        -0.2065100000   -6.3292700000    2.7050700000
     49  C         0.0735800000   -3.5574500000    3.2582500000
     50  H         0.9705800000   -4.0774600000    3.6440000000
     51  H        -0.6600200000   -3.5107400000    4.0914000000
     52  H         0.3536600000   -2.5143200000    3.0031200000
     53  H        -1.4781700000   -3.6797300000    1.8408700000
   Point Group: c1    Number of degrees of freedom:   153


   Energy is  -1119.585306431


 Attempting to generate delocalized internal coordinates
 Initial Hessian constructed with Jon Baker's OPTIMIZE code

153 Hessian modes will be used to form the next step
  Hessian Eigenvalues:
     0.002000    0.003320    0.004331    0.004829    0.011010    0.012184
     0.016195    0.017140    0.017468    0.017739    0.018919    0.019165
     0.019744    0.020187    0.020465    0.020749    0.020950    0.021595
     0.021727    0.021795    0.021877    0.021918    0.021928    0.021942
     0.021957    0.022180    0.022224    0.022232    0.022394    0.022431
     0.022558    0.022644    0.022692    0.022842    0.022880    0.023139
     0.023192    0.023417    0.023456    0.025384    0.031451    0.039130
     0.042272    0.044632    0.044972    0.052406    0.052680    0.054830
     0.055247    0.056716    0.057417    0.061182    0.088272    0.090024
     0.135851    0.159506    0.159890    0.159901    0.159953    0.159959
     0.159961    0.159975    0.159977    0.159977    0.159986    0.159989
     0.159994    0.159996    0.159996    0.160000    0.160000    0.160000
     0.160000    0.160000    0.160000    0.170345    0.176697    0.200131
     0.219939    0.219970    0.219984    0.224088    0.225754    0.225845
     0.227076    0.241608    0.242670    0.242728    0.244427    0.245022
     0.247176    0.247970    0.248802    0.248896    0.249339    0.253197
     0.267334    0.281420    0.285144    0.288177    0.312975    0.315166
     0.316154    0.324515    0.324859    0.324864    0.325140    0.326212
     0.326689    0.326713    0.329987    0.331005    0.339361    0.342467
     0.355440    0.355476    0.356623    0.356927    0.357068    0.357072
     0.357176    0.357226    0.357243    0.357695    0.357722    0.363103
     0.365428    0.366922    0.370831    0.373290    0.390665    0.395258
     0.410983    0.411904    0.412669    0.412946    0.425542    0.435965
     0.445033    0.447918    0.448580    0.453215    0.453231    0.453714
     0.455841    0.456651    0.457039    0.457884    0.458941    0.467317
     0.468499    0.468630    0.495634

 Minimum search - taking simple RFO step
 Searching for Lamda that Minimizes Along All modes
 Value Taken    Lamda =  -0.02363553
 Calculated Step too Large.  Step scaled by  0.612678
 Step Taken.  Stepsize is  0.300000

                             Maximum     Tolerance    Cnvgd?
         Gradient           0.022713      0.000300      NO
         Displacement       0.184236      0.001200      NO
         Energy change     *********      0.000001      NO


 New Cartesian Coordinates Obtained by Inverse Iteration

 Displacement from previous Coordinates is:  2.543154
 ----------------------------------------------------------------
             Standard Nuclear Orientation (Angstroms)
    I     Atom           X                Y                Z
 ----------------------------------------------------------------
    1      C      -1.8312305959    -0.4062198002     0.0001476224
    2      C      -1.3837939355    -1.7350426193    -0.0097391825
    3      C       0.0849339956    -1.7606891979     0.2714022574
    4      C       0.4287112155    -0.3276409646     0.5314930396
    5      C      -0.7163892674     0.4612532203     0.3538151815
    6      C      -3.1568154638    -0.0715286827    -0.2848475936
    7      C      -4.0499352313    -1.0923280553    -0.6160403226
    8      C      -3.6092376514    -2.4218018107    -0.6743403666
    9      C      -2.2800306271    -2.7494007316    -0.3853461948
   10      H      -3.4900515740     0.9597609868    -0.2583125050
   11      H      -5.0835243234    -0.8549679011    -0.8433879415
   12      H      -4.3041309590    -3.2059723718    -0.9539243752
   13      H      -1.9757890929    -3.7823475250    -0.4705603742
   14      C      -0.7049961875     1.8416733872     0.5660609882
   15      C       1.5856712715     0.2719999162     1.0542409736
   16      C       0.4754461710     2.4397283622     1.0115236763
   17      C       1.6065674529     1.6536734423     1.2727623598
   18      H       2.4587610660    -0.3092284316     1.3103315054
   19      H       2.5061762741     2.1188634109     1.6601111577
   20      H      -1.5976108044     2.4380988196     0.4142953953
   21      H       0.5068768868     3.5091249779     1.1899441400
   22      C       0.8906417672    -2.8746007592     0.3503115950
   23      C       0.3606065451    -4.2431554973     0.8136824945
   24      C       2.3563945388    -3.0249946850     0.1208786617
   25      C       1.6305432800    -5.0837229689     1.1196558817
   26      C       2.7655269500    -4.2494727833     0.6367012274
   27      H       1.5982155854    -6.0575355028     0.6034018020
   28      H       1.7764029084    -5.2857658013     2.1910304354
   29      C       4.1074358931    -4.6544849232     0.6490119698
   30      C       5.0649728747    -3.8460976207     0.0641238734
   31      C       3.3055062329    -2.2672814944    -0.6522680552
   32      C       4.6825626562    -2.6754847856    -0.6299020073
   33      H       4.3913399228    -5.6006913702     1.0977369882
   34      H       6.1041090493    -4.1589915396     0.0699817076
   35      C       5.6493723057    -1.9393594050    -1.3491270110
   36      C       2.9583843864    -1.2008748113    -1.5122052621
   37      C       3.9250084001    -0.5054762343    -2.2288507903
   38      C       5.2770686855    -0.8569520623    -2.1299144884
   39      H       1.9283183489    -0.9174893307    -1.6510758207
   40      H       3.6250214395     0.3134756011    -2.8733145244
   41      H       6.6914621833    -2.2402967021    -1.3179316466
   42      H       6.0265880788    -0.3079895940    -2.6898566193
   43      H      -0.1904962808    -4.7040604783    -0.0227912919
   44      C      -0.5566185031    -4.1839134527     2.0840415532
   45      C      -1.0678311198    -5.5842892088     2.4635377750
   46      H      -1.6011176461    -6.0475957013     1.6171181360
   47      H      -1.7720648652    -5.5175301583     3.3079084878
   48      H      -0.2492524694    -6.2570403261     2.7630646296
   49      C       0.1003821213    -3.4887850698     3.2919202517
   50      H       0.9764122490    -4.0304798938     3.6785652880
   51      H      -0.6271595269    -3.4194821420     4.1161951675
   52      H       0.4120205172    -2.4643579216     3.0392076115
   53      H      -1.4471651277    -3.5881418087     1.8586025393
 ----------------------------------------------------------------
 Nuclear Repulsion Energy =  2602.1730555283 hartrees
 There are       99 alpha and       99 beta electrons
 Applying Cartesian multipole field
    Component          Value
    ---------          -----
     (2,0,0)        1.00000E-12
     (0,2,0)        2.00000E-12
     (0,0,2)       -3.00000E-11
 Nucleus-field energy     =    -0.0000000208 hartrees
 Requested basis set is 6-31G(d,p)
 There are 188 shells and 555 basis functions
 A cutoff of  1.0D-11 yielded   9550 shell pairs
 There are     89042 function pairs
 Smallest overlap matrix eigenvalue = 2.41E-04
 Guess MOs from SCF MO coefficient file

 -----------------------------------------------------------------------
  General SCF calculation program by
  Eric Jon Sundstrom, Paul Horn, Yuezhi Mao, Dmitri Zuev, Alec White,
  David Stuck, Shaama M.S., Shane Yost, Joonho Lee, David Small,
  Daniel Levine, Susi Lehtola, Hugh Burton, Evgeny Epifanovsky
 -----------------------------------------------------------------------
 Exchange:     0.2000 Hartree-Fock + 0.0800 Slater + 0.7200 B88
 Correlation:  0.1900 VWN1RPA + 0.8100 LYP
 Using SG-1 standard quadrature grid
 using 14 threads for integral computing
 -------------------------------------------------------
 OpenMP Integral computing Module                
 Release: version 1.0, May 2013, Q-Chem Inc. Pittsburgh 
 -------------------------------------------------------
 -------------------------------------------------------
 OpenMP BLAS3 based DFT computing Module                
 Release: version 1.0, May 2013, Q-Chem Inc. Pittsburgh 
 -------------------------------------------------------
 A restricted SCF calculation will be
 performed using DIIS
 SCF converges when DIIS error is below 1.0e-08
 ---------------------------------------
  Cycle       Energy         DIIS error
 ---------------------------------------
    1   -1119.5519157331      6.79e-04  
    2   -1119.5914849327      1.08e-04  
    3   -1119.5909972264      1.73e-04  
    4   -1119.5922845002      3.20e-05  
    5   -1119.5923201157      1.68e-05  
    6   -1119.5923308749      6.17e-06  
    7   -1119.5923324359      1.87e-06  
    8   -1119.5923325807      4.56e-07  
    9   -1119.5923325883      1.36e-07  
   10   -1119.5923325889      7.56e-08  
   11   -1119.5923325891      2.59e-08  
   12   -1119.5923325891      8.87e-09  Convergence criterion met
 ---------------------------------------
 SCF time:   CPU 785.20s  wall 57.00s 
 SCF   energy in the final basis set =    -1119.5923325891
 Total energy in the final basis set =    -1119.5923325891
 
 --------------------------------------------------------------
 
                    Orbital Energies (a.u.)
 --------------------------------------------------------------
 
 Alpha MOs
 -- Occupied --
-10.2105 -10.2028 -10.2010 -10.1989 -10.1985 -10.1977 -10.1972 -10.1968
-10.1917 -10.1914 -10.1899 -10.1894 -10.1888 -10.1881 -10.1868 -10.1863
-10.1859 -10.1856 -10.1842 -10.1838 -10.1834 -10.1825 -10.1821 -10.1820
-10.1819 -10.1806 -10.1806 -10.1744 -10.1689  -0.8885  -0.8783  -0.8497
 -0.8341  -0.8127  -0.7928  -0.7820  -0.7631  -0.7561  -0.7397  -0.7333
 -0.7124  -0.7053  -0.6998  -0.6764  -0.6593  -0.6278  -0.6224  -0.6105
 -0.5929  -0.5869  -0.5771  -0.5641  -0.5550  -0.5321  -0.5175  -0.5066
 -0.4913  -0.4851  -0.4795  -0.4731  -0.4626  -0.4538  -0.4489  -0.4362
 -0.4318  -0.4286  -0.4223  -0.4161  -0.4127  -0.4115  -0.4056  -0.4046
 -0.4004  -0.3936  -0.3891  -0.3831  -0.3787  -0.3743  -0.3654  -0.3579
 -0.3501  -0.3483  -0.3424  -0.3385  -0.3353  -0.3302  -0.3273  -0.3246
 -0.3208  -0.3127  -0.3093  -0.2963  -0.2827  -0.2687  -0.2416  -0.2400
 -0.2259  -0.2072  -0.1869
 -- Virtual --
 -0.0732  -0.0274  -0.0169  -0.0086   0.0130   0.0343   0.0496   0.0690
  0.0773   0.0944   0.0994   0.1020   0.1073   0.1147   0.1222   0.1319
  0.1406   0.1428   0.1475   0.1489   0.1611   0.1649   0.1674   0.1704
  0.1759   0.1795   0.1831   0.1854   0.1929   0.1971   0.1989   0.2016
  0.2038   0.2098   0.2138   0.2195   0.2308   0.2355   0.2407   0.2465
  0.2522   0.2556   0.2636   0.2693   0.2744   0.2924   0.2957   0.3057
  0.3078   0.3135   0.3195   0.3218   0.3367   0.3481   0.3627   0.3699
  0.3851   0.3937   0.4037   0.4127   0.4331   0.4615   0.4690   0.4766
  0.4905   0.4993   0.5077   0.5086   0.5099   0.5232   0.5237   0.5316
  0.5359   0.5409   0.5428   0.5465   0.5532   0.5550   0.5583   0.5620
  0.5626   0.5740   0.5754   0.5772   0.5791   0.5843   0.5902   0.5939
  0.5992   0.6008   0.6049   0.6076   0.6124   0.6141   0.6145   0.6164
  0.6196   0.6234   0.6266   0.6328   0.6391   0.6434   0.6468   0.6511
  0.6550   0.6578   0.6616   0.6642   0.6671   0.6746   0.6806   0.7001
  0.7037   0.7060   0.7081   0.7186   0.7419   0.7514   0.7633   0.7751
  0.7850   0.7952   0.7995   0.8067   0.8092   0.8111   0.8216   0.8225
  0.8251   0.8265   0.8301   0.8340   0.8352   0.8393   0.8476   0.8523
  0.8583   0.8608   0.8624   0.8742   0.8750   0.8810   0.8904   0.8984
  0.9034   0.9118   0.9163   0.9209   0.9282   0.9353   0.9406   0.9434
  0.9485   0.9553   0.9598   0.9696   0.9804   0.9840   0.9911   1.0000
  1.0032   1.0111   1.0207   1.0256   1.0381   1.0431   1.0509   1.0625
  1.0730   1.0824   1.0860   1.1027   1.1117   1.1212   1.1250   1.1341
  1.1479   1.1518   1.1631   1.1759   1.1957   1.2098   1.2180   1.2248
  1.2384   1.2477   1.2559   1.2638   1.2762   1.2793   1.2875   1.2934
  1.3000   1.3205   1.3289   1.3427   1.3552   1.3559   1.3652   1.3682
  1.3801   1.3939   1.3966   1.4083   1.4133   1.4142   1.4194   1.4240
  1.4265   1.4299   1.4330   1.4505   1.4611   1.4694   1.4736   1.4978
  1.5074   1.5313   1.5354   1.5489   1.5579   1.5844   1.6003   1.6076
  1.6215   1.6423   1.6655   1.6722   1.7012   1.7205   1.7291   1.7394
  1.7551   1.7596   1.7666   1.7783   1.7798   1.7875   1.7897   1.7903
  1.8063   1.8115   1.8260   1.8329   1.8443   1.8515   1.8630   1.8662
  1.8714   1.8757   1.8812   1.8855   1.8868   1.8980   1.9037   1.9074
  1.9151   1.9208   1.9338   1.9382   1.9425   1.9512   1.9534   1.9554
  1.9716   1.9758   1.9819   1.9965   1.9980   2.0023   2.0066   2.0085
  2.0125   2.0286   2.0341   2.0375   2.0473   2.0528   2.0557   2.0609
  2.0681   2.0814   2.0912   2.1001   2.1062   2.1249   2.1285   2.1375
  2.1453   2.1536   2.1549   2.1652   2.1902   2.1962   2.2051   2.2172
  2.2241   2.2318   2.2496   2.2616   2.2702   2.2791   2.2840   2.2849
  2.2920   2.3067   2.3115   2.3238   2.3319   2.3386   2.3482   2.3489
  2.3572   2.3684   2.3773   2.3810   2.3864   2.3899   2.3953   2.3956
  2.4007   2.4081   2.4177   2.4361   2.4469   2.4521   2.4551   2.4673
  2.4683   2.4752   2.4801   2.4844   2.4899   2.4936   2.5052   2.5110
  2.5243   2.5266   2.5416   2.5436   2.5594   2.5658   2.5701   2.5727
  2.5810   2.5907   2.5962   2.6018   2.6038   2.6124   2.6220   2.6305
  2.6442   2.6519   2.6599   2.6663   2.6733   2.6836   2.6857   2.6948
  2.6972   2.7165   2.7205   2.7328   2.7361   2.7433   2.7437   2.7558
  2.7652   2.7724   2.7798   2.7843   2.7941   2.8035   2.8226   2.8352
  2.8552   2.8742   2.8795   2.8948   2.9009   2.9052   2.9121   2.9242
  2.9261   2.9631   2.9705   2.9972   3.0060   3.0351   3.0499   3.0916
  3.1272   3.1492   3.1808   3.1825   3.1902   3.2114   3.2181   3.2310
  3.2458   3.2532   3.2591   3.2650   3.2699   3.2952   3.3065   3.3396
  3.3451   3.3507   3.3518   3.3829   3.4017   3.4117   3.4279   3.4475
  3.4578   3.4760   3.4832   3.4954   3.5004   3.5248   3.5565   3.7246
  3.8254   3.8643   3.9058   4.1144   4.1176   4.1364   4.1422   4.1487
  4.1515   4.1616   4.1807   4.1878   4.2041   4.2135   4.2537   4.2852
  4.3179   4.3902   4.4053   4.4266   4.4500   4.5049   4.5251   4.5442
  4.5653   4.5905   4.6537   4.7035   4.8096   4.8739   4.9199   4.9405
 --------------------------------------------------------------
 
          Ground-State Mulliken Net Atomic Charges

     Atom                 Charge (a.u.)
  ----------------------------------------
      1 C                     0.028730
      2 C                     0.063212
      3 C                    -0.023316
      4 C                     0.052514
      5 C                     0.029325
      6 C                    -0.117422
      7 C                    -0.098489
      8 C                    -0.091734
      9 C                    -0.136179
     10 H                     0.082256
     11 H                     0.081318
     12 H                     0.080119
     13 H                     0.080470
     14 C                    -0.118650
     15 C                    -0.131588
     16 C                    -0.098634
     17 C                    -0.090292
     18 H                     0.093095
     19 H                     0.081392
     20 H                     0.081002
     21 H                     0.080248
     22 C                    -0.028261
     23 C                    -0.118199
     24 C                     0.046094
     25 C                    -0.254736
     26 C                     0.049345
     27 H                     0.114427
     28 H                     0.120407
     29 C                    -0.122678
     30 C                    -0.130492
     31 C                     0.058293
     32 C                     0.108958
     33 H                     0.083245
     34 H                     0.088518
     35 C                    -0.139657
     36 C                    -0.122588
     37 C                    -0.093207
     38 C                    -0.087317
     39 H                     0.106759
     40 H                     0.090273
     41 H                     0.085559
     42 H                     0.085231
     43 H                     0.108659
     44 C                    -0.058266
     45 C                    -0.311341
     46 H                     0.093607
     47 H                     0.101549
     48 H                     0.098988
     49 C                    -0.320538
     50 H                     0.092967
     51 H                     0.100922
     52 H                     0.117550
     53 H                     0.108552
  ----------------------------------------
  Sum of atomic charges =     0.000000

 -----------------------------------------------------------------
                    Cartesian Multipole Moments
 -----------------------------------------------------------------
    Charge (ESU x 10^10)
                 0.0000
    Dipole Moment (Debye)
         X       1.0681      Y      -1.3129      Z      -0.0050
       Tot       1.6925
    Quadrupole Moments (Debye-Ang)
        XX    -151.6181     XY      -4.9754     YY    -149.9662
        XZ       0.8383     YZ      -3.7532     ZZ    -170.2301
    Octopole Moments (Debye-Ang^2)
       XXX    -397.8514    XXY     290.0698    XYY    -130.0106
       YYY     905.8226    XXZ     -65.9944    XYZ     -17.2276
       YYZ     -22.4072    XZZ    -147.4042    YZZ     332.5682
       ZZZ    -137.9774
    Hexadecapole Moments (Debye-Ang^3)
      XXXX   -7596.5735   XXXY    1029.1278   XXYY   -2637.4600
      XYYY    1098.8963   YYYY   -8287.6491   XXXZ     318.0383
      XXYZ     198.7022   XYYZ     236.0928   YYYZ     622.8292
      XXZZ   -1727.8399   XYZZ     467.0906   YYZZ   -1800.4489
      XZZZ     368.5499   YZZZ     643.6060   ZZZZ   -2003.7879
 -----------------------------------------------------------------
 Calculating analytic gradient of the SCF energy
 Gradient of SCF Energy
            1           2           3           4           5           6
    1   0.0070523  -0.0070130   0.0027329  -0.0130814   0.0093064   0.0004553
    2  -0.0111328   0.0152533  -0.0088538   0.0099007  -0.0095740   0.0058627
    3   0.0001423  -0.0002126  -0.0015755   0.0010711   0.0017256   0.0016390
            7           8           9          10          11          12
    1  -0.0018499  -0.0035281   0.0041936  -0.0001071   0.0011265   0.0005904
    2  -0.0001825  -0.0023722  -0.0044657  -0.0014415  -0.0000564   0.0009983
    3  -0.0004378  -0.0003506   0.0012297   0.0000746   0.0000017   0.0001848
           13          14          15          16          17          18
    1  -0.0017246  -0.0054346   0.0016031   0.0003466   0.0032867  -0.0026986
    2   0.0019857   0.0014916  -0.0026514   0.0018810   0.0024941   0.0032169
    3  -0.0009910  -0.0024224   0.0024021  -0.0000728   0.0008368   0.0019346
           19          20          21          22          23          24
    1  -0.0010505   0.0013974  -0.0002901  -0.0085796   0.0019355   0.0119457
    2  -0.0002337  -0.0002683  -0.0011082  -0.0005871  -0.0007939  -0.0005537
    3  -0.0004863   0.0002894   0.0001544   0.0036227  -0.0091395  -0.0024429
           25          26          27          28          29          30
    1   0.0013879  -0.0028222  -0.0027300   0.0059290  -0.0101672   0.0066157
    2   0.0038081   0.0034368  -0.0027078   0.0018528  -0.0042131   0.0118758
    3   0.0024205   0.0015618  -0.0035132   0.0024130   0.0048231  -0.0063189
           31          32          33          34          35          36
    1   0.0037853  -0.0027624   0.0004197  -0.0015941   0.0014599  -0.0063205
    2  -0.0051248  -0.0001514   0.0008832  -0.0021556  -0.0109741  -0.0086843
    3   0.0007662  -0.0011861  -0.0009373   0.0004258   0.0086672   0.0045579
           37          38          39          40          41          42
    1   0.0093627  -0.0077399   0.0046517   0.0007394  -0.0003284  -0.0006514
    2   0.0034565   0.0065013   0.0001668  -0.0003375   0.0019687  -0.0007640
    3  -0.0040281  -0.0036960  -0.0034456   0.0009458  -0.0016453   0.0002039
           43          44          45          46          47          48
    1  -0.0006934   0.0037563   0.0013960  -0.0020630  -0.0028644   0.0031912
    2   0.0018942  -0.0010830   0.0018377  -0.0004002   0.0008157  -0.0017000
    3  -0.0049961  -0.0003451   0.0009122  -0.0036576   0.0031241   0.0009930
           49          50          51          52          53
    1  -0.0006833   0.0022780  -0.0029318   0.0006148  -0.0018508
    2  -0.0028050  -0.0011450   0.0005253   0.0043889   0.0000249
    3  -0.0013255   0.0014541   0.0030461  -0.0016710   0.0032738
 Max gradient component =       1.525E-02
 RMS gradient           =       4.240E-03
 Gradient time:  CPU 226.94 s  wall 17.18 s
 Geometry Optimization Parameters
   NAtoms,    NIC,     NZ,  NCons,   NDum,   NFix, NCnnct, MaxDiis
       53     426       0       0       0       0       0       0

 Cartesian Hessian Update
 Hessian updated using BFGS update


** GEOMETRY OPTIMIZATION IN DELOCALIZED INTERNAL COORDINATES **
   Searching for a Minimum

   Optimization Cycle:   2

                       Coordinates (Angstroms)
     ATOM                X               Y               Z
      1  C        -1.8312305959   -0.4062198002    0.0001476224
      2  C        -1.3837939355   -1.7350426193   -0.0097391825
      3  C         0.0849339956   -1.7606891979    0.2714022574
      4  C         0.4287112155   -0.3276409646    0.5314930396
      5  C        -0.7163892674    0.4612532203    0.3538151815
      6  C        -3.1568154638   -0.0715286827   -0.2848475936
      7  C        -4.0499352313   -1.0923280553   -0.6160403226
      8  C        -3.6092376514   -2.4218018107   -0.6743403666
      9  C        -2.2800306271   -2.7494007316   -0.3853461948
     10  H        -3.4900515740    0.9597609868   -0.2583125050
     11  H        -5.0835243234   -0.8549679011   -0.8433879415
     12  H        -4.3041309590   -3.2059723718   -0.9539243752
     13  H        -1.9757890929   -3.7823475250   -0.4705603742
     14  C        -0.7049961875    1.8416733872    0.5660609882
     15  C         1.5856712715    0.2719999162    1.0542409736
     16  C         0.4754461710    2.4397283622    1.0115236763
     17  C         1.6065674529    1.6536734423    1.2727623598
     18  H         2.4587610660   -0.3092284316    1.3103315054
     19  H         2.5061762741    2.1188634109    1.6601111577
     20  H        -1.5976108044    2.4380988196    0.4142953953
     21  H         0.5068768868    3.5091249779    1.1899441400
     22  C         0.8906417672   -2.8746007592    0.3503115950
     23  C         0.3606065451   -4.2431554973    0.8136824945
     24  C         2.3563945388   -3.0249946850    0.1208786617
     25  C         1.6305432800   -5.0837229689    1.1196558817
     26  C         2.7655269500   -4.2494727833    0.6367012274
     27  H         1.5982155854   -6.0575355028    0.6034018020
     28  H         1.7764029084   -5.2857658013    2.1910304354
     29  C         4.1074358931   -4.6544849232    0.6490119698
     30  C         5.0649728747   -3.8460976207    0.0641238734
     31  C         3.3055062329   -2.2672814944   -0.6522680552
     32  C         4.6825626562   -2.6754847856   -0.6299020073
     33  H         4.3913399228   -5.6006913702    1.0977369882
     34  H         6.1041090493   -4.1589915396    0.0699817076
     35  C         5.6493723057   -1.9393594050   -1.3491270110
     36  C         2.9583843864   -1.2008748113   -1.5122052621
     37  C         3.9250084001   -0.5054762343   -2.2288507903
     38  C         5.2770686855   -0.8569520623   -2.1299144884
     39  H         1.9283183489   -0.9174893307   -1.6510758207
     40  H         3.6250214395    0.3134756011   -2.8733145244
     41  H         6.6914621833   -2.2402967021   -1.3179316466
     42  H         6.0265880788   -0.3079895940   -2.6898566193
     43  H        -0.1904962808   -4.7040604783   -0.0227912919
     44  C        -0.5566185031   -4.1839134527    2.0840415532
     45  C        -1.0678311198   -5.5842892088    2.4635377750
     46  H        -1.6011176461   -6.0475957013    1.6171181360
     47  H        -1.7720648652   -5.5175301583    3.3079084878
     48  H        -0.2492524694   -6.2570403261    2.7630646296
     49  C         0.1003821213   -3.4887850698    3.2919202517
     50  H         0.9764122490   -4.0304798938    3.6785652880
     51  H        -0.6271595269   -3.4194821420    4.1161951675
     52  H         0.4120205172   -2.4643579216    3.0392076115
     53  H        -1.4471651277   -3.5881418087    1.8586025393
   Point Group: c1    Number of degrees of freedom:   153


   Energy is  -1119.592332589

 Hessian updated using BFGS update

149 Hessian modes will be used to form the next step
  Hessian Eigenvalues:
     0.002001    0.003320    0.004331    0.004865    0.011127    0.012196
     0.016212    0.017129    0.017579    0.017901    0.018924    0.019522
     0.019908    0.020137    0.020583    0.020748    0.020949    0.021583
     0.021642    0.021795    0.021853    0.021927    0.021929    0.021942
     0.021965    0.022177    0.022214    0.022232    0.022394    0.022432
     0.022559    0.022644    0.022691    0.022811    0.022891    0.023138
     0.023192    0.023413    0.023454    0.031396    0.038282    0.041527
     0.044019    0.044936    0.046721    0.052403    0.053966    0.055176
     0.055445    0.056759    0.057422    0.066704    0.082446    0.088447
     0.136618    0.145202    0.159569    0.159890    0.159906    0.159958
     0.159961    0.159972    0.159977    0.159977    0.159984    0.159991
     0.159994    0.159996    0.159996    0.159999    0.160359    0.170386
     0.176736    0.196111    0.209706    0.219950    0.219982    0.221645
     0.224232    0.225818    0.226189    0.229024    0.241965    0.242716
     0.243176    0.244652    0.247088    0.247850    0.248338    0.249169
     0.251125    0.265247    0.270819    0.282094    0.285404    0.288244
     0.302730    0.313726    0.316301    0.324594    0.324861    0.325061
     0.325783    0.326479    0.326696    0.329572    0.330781    0.336677
     0.339584    0.352299    0.355449    0.355541    0.356686    0.356949
     0.357063    0.357127    0.357188    0.357235    0.357570    0.357708
     0.359088    0.362501    0.365642    0.366387    0.372035    0.382730
     0.394865    0.399790    0.410891    0.411740    0.412741    0.423707
     0.429771    0.437297    0.444997    0.447997    0.448339    0.453174
     0.453558    0.454076    0.455764    0.455907    0.457673    0.458938
     0.460642    0.467822    0.468469    0.489322    0.515147

 Minimum search - taking simple RFO step
 Searching for Lamda that Minimizes Along All modes
 Value Taken    Lamda =  -0.01885190
 Calculated Step too Large.  Step scaled by  0.604166
 Step Taken.  Stepsize is  0.300000

                             Maximum     Tolerance    Cnvgd?
         Gradient           0.029347      0.000300      NO
         Displacement       0.087532      0.001200      NO
         Energy change     -0.007026      0.000001      NO


 New Cartesian Coordinates Obtained by Inverse Iteration

 Displacement from previous Coordinates is:  1.557935
 ----------------------------------------------------------------
             Standard Nuclear Orientation (Angstroms)
    I     Atom           X                Y                Z
 ----------------------------------------------------------------
    1      C      -1.7995427487    -0.3943535427    -0.0347928213
    2      C      -1.3562711265    -1.7458502308    -0.0020026231
    3      C       0.1007126342    -1.7762204606     0.2922719550
    4      C       0.4824776526    -0.3536057802     0.4909264653
    5      C      -0.6631245381     0.4698217269     0.3062832455
    6      C      -3.1211208031    -0.0738091756    -0.3509080658
    7      C      -4.0091650379    -1.0993688878    -0.6641183692
    8      C      -3.5712456536    -2.4285699113    -0.6778919491
    9      C      -2.2553592193    -2.7574479924    -0.3600586684
   10      H      -3.4519350419     0.9619045782    -0.3628610461
   11      H      -5.0423412024    -0.8675686748    -0.9127405030
   12      H      -4.2666970666    -3.2211252793    -0.9431747610
   13      H      -1.9475373746    -3.7984661771    -0.4030817686
   14      C      -0.5992753180     1.8512824139     0.4956891001
   15      C       1.6635545910     0.2272625847     0.9652749915
   16      C       0.6037718265     2.4181521571     0.9090128150
   17      C       1.7166125388     1.6059642654     1.1577948331
   18      H       2.5314607345    -0.3795155280     1.2002679422
   19      H       2.6407184443     2.0545548731     1.5137149720
   20      H      -1.4777742810     2.4739253377     0.3430573162
   21      H       0.6730963822     3.4926875551     1.0631510042
   22      C       0.8851935266    -2.9001672524     0.3966366926
   23      C       0.3487475100    -4.2716206393     0.8785902777
   24      C       2.3277325649    -3.0419392292     0.1603311009
   25      C       1.6198676043    -5.1287942787     1.1433568521
   26      C       2.7640416627    -4.2833872694     0.6408757869
   27      H       1.5937840720    -6.0901464761     0.6285906972
   28      H       1.7248061942    -5.3577578023     2.2064274361
   29      C       4.1243413196    -4.6662247352     0.6086349279
   30      C       5.0452525112    -3.8301030922     0.0275004503
   31      C       3.2479075137    -2.2290850254    -0.6027134284
   32      C       4.6370631613    -2.6252460326    -0.6240833102
   33      H       4.4332793126    -5.6194307131     1.0325102253
   34      H       6.0962060337    -4.1080034335     0.0006313928
   35      C       5.5733783616    -1.8325603677    -1.3445284882
   36      C       2.8656764183    -1.1227064719    -1.4004933020
   37      C       3.7980959384    -0.3951859109    -2.1100633583
   38      C       5.1699337185    -0.7327267407    -2.0654342206
   39      H       1.8176052137    -0.8574486256    -1.4720064628
   40      H       3.4638029109     0.4470687354    -2.7105660297
   41      H       6.6188548426    -2.1306993486    -1.3399322110
   42      H       5.8997870285    -0.1470538886    -2.6198800125
   43      H      -0.2146449203    -4.7381989842     0.0659371821
   44      C      -0.5796626386    -4.2116243863     2.1221463709
   45      C      -1.1101753906    -5.6129924313     2.4769262482
   46      H      -1.6256517412    -6.0759963115     1.6340088990
   47      H      -1.8209391436    -5.5531638532     3.2995481406
   48      H      -0.3156004096    -6.2922571599     2.7861017650
   49      C       0.0766252972    -3.5373628713     3.3363170571
   50      H       0.9291995484    -4.1014817767     3.7199007147
   51      H      -0.6492875915    -3.4646087758     4.1448015321
   52      H       0.4156646547    -2.5299405220     3.1085404956
   53      H      -1.4497004770    -3.6047181813     1.8646425142
 ----------------------------------------------------------------
 Nuclear Repulsion Energy =  2610.7852847710 hartrees
 There are       99 alpha and       99 beta electrons
 Applying Cartesian multipole field
    Component          Value
    ---------          -----
     (2,0,0)        1.00000E-12
     (0,2,0)        2.00000E-12
     (0,0,2)       -3.00000E-11
 Nucleus-field energy     =    -0.0000000199 hartrees
 Requested basis set is 6-31G(d,p)
 There are 188 shells and 555 basis functions
 A cutoff of  1.0D-11 yielded   9609 shell pairs
 There are     89838 function pairs
 Smallest overlap matrix eigenvalue = 2.45E-04
 Guess MOs from SCF MO coefficient file

 -----------------------------------------------------------------------
  General SCF calculation program by
  Eric Jon Sundstrom, Paul Horn, Yuezhi Mao, Dmitri Zuev, Alec White,
  David Stuck, Shaama M.S., Shane Yost, Joonho Lee, David Small,
  Daniel Levine, Susi Lehtola, Hugh Burton, Evgeny Epifanovsky
 -----------------------------------------------------------------------
 Exchange:     0.2000 Hartree-Fock + 0.0800 Slater + 0.7200 B88
 Correlation:  0.1900 VWN1RPA + 0.8100 LYP
 Using SG-1 standard quadrature grid
 using 14 threads for integral computing
 -------------------------------------------------------
 OpenMP Integral computing Module                
 Release: version 1.0, May 2013, Q-Chem Inc. Pittsburgh 
 -------------------------------------------------------
 -------------------------------------------------------
 OpenMP BLAS3 based DFT computing Module                
 Release: version 1.0, May 2013, Q-Chem Inc. Pittsburgh 
 -------------------------------------------------------
 A restricted SCF calculation will be
 performed using DIIS
 SCF converges when DIIS error is below 1.0e-08
 ---------------------------------------
  Cycle       Energy         DIIS error
 ---------------------------------------
    1   -1119.5816145103      4.45e-04  
    2   -1119.5960196512      8.97e-05  
    3   -1119.5957579038      1.29e-04  
    4   -1119.5963933766      2.93e-05  
    5   -1119.5964242431      1.24e-05  
    6   -1119.5964301284      3.88e-06  
    7   -1119.5964307046      1.53e-06  
    8   -1119.5964307966      5.63e-07  
    9   -1119.5964308104      1.27e-07  
   10   -1119.5964308109      7.38e-08  
   11   -1119.5964308111      2.35e-08  
   12   -1119.5964308111      7.91e-09  Convergence criterion met
 ---------------------------------------
 SCF time:   CPU 794.43s  wall 57.00s 
 SCF   energy in the final basis set =    -1119.5964308111
 Total energy in the final basis set =    -1119.5964308111
 
 --------------------------------------------------------------
 
                    Orbital Energies (a.u.)
 --------------------------------------------------------------
 
 Alpha MOs
 -- Occupied --
-10.2084 -10.2027 -10.2026 -10.2015 -10.2006 -10.1991 -10.1970 -10.1948
-10.1942 -10.1921 -10.1907 -10.1905 -10.1898 -10.1883 -10.1860 -10.1860
-10.1850 -10.1847 -10.1846 -10.1840 -10.1839 -10.1834 -10.1826 -10.1825
-10.1817 -10.1806 -10.1797 -10.1720 -10.1656  -0.8867  -0.8749  -0.8481
 -0.8344  -0.8130  -0.7944  -0.7824  -0.7623  -0.7552  -0.7398  -0.7344
 -0.7124  -0.7043  -0.7004  -0.6805  -0.6592  -0.6268  -0.6238  -0.6089
 -0.5952  -0.5858  -0.5772  -0.5635  -0.5550  -0.5319  -0.5163  -0.5071
 -0.4918  -0.4855  -0.4798  -0.4734  -0.4624  -0.4532  -0.4494  -0.4355
 -0.4324  -0.4286  -0.4225  -0.4172  -0.4136  -0.4115  -0.4053  -0.4039
 -0.4008  -0.3923  -0.3884  -0.3832  -0.3774  -0.3765  -0.3668  -0.3578
 -0.3500  -0.3481  -0.3425  -0.3380  -0.3347  -0.3307  -0.3285  -0.3235
 -0.3215  -0.3132  -0.3107  -0.2969  -0.2820  -0.2696  -0.2427  -0.2399
 -0.2254  -0.2062  -0.1875
 -- Virtual --
 -0.0742  -0.0271  -0.0146  -0.0102   0.0130   0.0354   0.0504   0.0710
  0.0782   0.0955   0.0985   0.1024   0.1072   0.1148   0.1224   0.1343
  0.1417   0.1431   0.1491   0.1510   0.1609   0.1648   0.1660   0.1709
  0.1767   0.1803   0.1857   0.1876   0.1950   0.1981   0.1993   0.2025
  0.2041   0.2100   0.2154   0.2211   0.2308   0.2331   0.2438   0.2460
  0.2517   0.2561   0.2631   0.2680   0.2734   0.2940   0.2959   0.3071
  0.3076   0.3105   0.3213   0.3222   0.3358   0.3486   0.3602   0.3700
  0.3823   0.3940   0.4019   0.4103   0.4330   0.4558   0.4679   0.4744
  0.4895   0.4994   0.5036   0.5081   0.5136   0.5186   0.5238   0.5322
  0.5355   0.5412   0.5424   0.5464   0.5520   0.5546   0.5580   0.5609
  0.5652   0.5724   0.5747   0.5772   0.5800   0.5856   0.5871   0.5919
  0.5994   0.6007   0.6023   0.6071   0.6120   0.6142   0.6163   0.6178
  0.6206   0.6221   0.6262   0.6339   0.6389   0.6419   0.6461   0.6504
  0.6548   0.6586   0.6630   0.6662   0.6720   0.6808   0.6810   0.7027
  0.7038   0.7082   0.7110   0.7220   0.7452   0.7505   0.7645   0.7793
  0.7865   0.7958   0.8009   0.8063   0.8131   0.8143   0.8203   0.8231
  0.8250   0.8286   0.8296   0.8349   0.8360   0.8441   0.8485   0.8561
  0.8575   0.8617   0.8689   0.8734   0.8750   0.8811   0.8913   0.9009
  0.9053   0.9155   0.9191   0.9228   0.9276   0.9369   0.9415   0.9467
  0.9530   0.9561   0.9628   0.9690   0.9857   0.9958   1.0008   1.0020
  1.0040   1.0186   1.0219   1.0263   1.0400   1.0454   1.0548   1.0657
  1.0789   1.0815   1.0908   1.1079   1.1137   1.1183   1.1238   1.1363
  1.1505   1.1531   1.1675   1.1800   1.1950   1.2128   1.2190   1.2263
  1.2436   1.2594   1.2640   1.2761   1.2779   1.2855   1.2913   1.3017
  1.3055   1.3214   1.3349   1.3500   1.3606   1.3666   1.3684   1.3777
  1.3810   1.3967   1.3985   1.4123   1.4154   1.4188   1.4247   1.4263
  1.4285   1.4341   1.4408   1.4524   1.4627   1.4710   1.4770   1.4956
  1.5058   1.5228   1.5343   1.5499   1.5692   1.5830   1.6022   1.6099
  1.6223   1.6416   1.6707   1.6721   1.6971   1.7137   1.7306   1.7413
  1.7455   1.7564   1.7679   1.7741   1.7768   1.7823   1.7865   1.7876
  1.7971   1.8123   1.8232   1.8344   1.8444   1.8522   1.8612   1.8677
  1.8709   1.8763   1.8845   1.8848   1.8883   1.8979   1.9024   1.9079
  1.9181   1.9237   1.9318   1.9400   1.9423   1.9503   1.9544   1.9576
  1.9745   1.9786   1.9870   1.9941   1.9996   2.0016   2.0033   2.0091
  2.0142   2.0324   2.0372   2.0409   2.0504   2.0581   2.0611   2.0637
  2.0691   2.0840   2.0930   2.1108   2.1221   2.1269   2.1351   2.1463
  2.1540   2.1570   2.1615   2.1695   2.1879   2.1971   2.2100   2.2199
  2.2247   2.2338   2.2445   2.2586   2.2655   2.2812   2.2842   2.2867
  2.2934   2.3053   2.3062   2.3230   2.3308   2.3391   2.3459   2.3510
  2.3600   2.3667   2.3736   2.3793   2.3839   2.3861   2.3904   2.3961
  2.3991   2.4071   2.4180   2.4352   2.4473   2.4541   2.4576   2.4644
  2.4685   2.4768   2.4796   2.4850   2.4922   2.4969   2.5016   2.5172
  2.5256   2.5288   2.5395   2.5475   2.5611   2.5649   2.5749   2.5778
  2.5818   2.5919   2.6004   2.6025   2.6055   2.6103   2.6216   2.6335
  2.6415   2.6554   2.6597   2.6732   2.6795   2.6842   2.6879   2.6953
  2.6994   2.7160   2.7295   2.7335   2.7399   2.7521   2.7548   2.7620
  2.7662   2.7819   2.7837   2.7894   2.8047   2.8132   2.8249   2.8498
  2.8607   2.8782   2.8839   2.9051   2.9134   2.9177   2.9227   2.9248
  2.9295   2.9722   2.9780   2.9990   3.0137   3.0313   3.0548   3.0916
  3.1284   3.1537   3.1800   3.1859   3.2081   3.2156   3.2238   3.2400
  3.2464   3.2514   3.2533   3.2619   3.2701   3.2932   3.3127   3.3303
  3.3406   3.3542   3.3677   3.3726   3.3905   3.4344   3.4431   3.4532
  3.4773   3.4783   3.4928   3.4995   3.5186   3.5201   3.5689   3.7050
  3.8250   3.8618   3.9029   4.1109   4.1119   4.1331   4.1443   4.1512
  4.1552   4.1653   4.1848   4.1968   4.2106   4.2353   4.2547   4.2899
  4.3168   4.3912   4.4068   4.4331   4.4567   4.5030   4.5253   4.5525
  4.5609   4.5953   4.6520   4.7013   4.8130   4.8792   4.9192   4.9349
 --------------------------------------------------------------
 
          Ground-State Mulliken Net Atomic Charges

     Atom                 Charge (a.u.)
  ----------------------------------------
      1 C                     0.029192
      2 C                     0.059361
      3 C                    -0.022874
      4 C                     0.027944
      5 C                     0.034967
      6 C                    -0.121119
      7 C                    -0.097462
      8 C                    -0.093069
      9 C                    -0.134107
     10 H                     0.082099
     11 H                     0.081610
     12 H                     0.079486
     13 H                     0.080314
     14 C                    -0.123838
     15 C                    -0.121038
     16 C                    -0.097079
     17 C                    -0.092967
     18 H                     0.096505
     19 H                     0.080644
     20 H                     0.080999
     21 H                     0.080345
     22 C                    -0.014211
     23 C                    -0.116430
     24 C                     0.042326
     25 C                    -0.257465
     26 C                     0.045931
     27 H                     0.115737
     28 H                     0.120773
     29 C                    -0.123253
     30 C                    -0.124893
     31 C                     0.052790
     32 C                     0.099948
     33 H                     0.085378
     34 H                     0.088421
     35 C                    -0.137093
     36 C                    -0.115324
     37 C                    -0.098543
     38 C                    -0.086050
     39 H                     0.114023
     40 H                     0.091263
     41 H                     0.084450
     42 H                     0.086796
     43 H                     0.109083
     44 C                    -0.060426
     45 C                    -0.315607
     46 H                     0.095476
     47 H                     0.103600
     48 H                     0.100200
     49 C                    -0.320331
     50 H                     0.094139
     51 H                     0.101843
     52 H                     0.118633
     53 H                     0.108905
  ----------------------------------------
  Sum of atomic charges =    -0.000000

 -----------------------------------------------------------------
                    Cartesian Multipole Moments
 -----------------------------------------------------------------
    Charge (ESU x 10^10)
                -0.0000
    Dipole Moment (Debye)
         X       1.1102      Y      -1.3733      Z       0.0340
       Tot       1.7663
    Quadrupole Moments (Debye-Ang)
        XX    -151.7513     XY      -4.6318     YY    -148.9716
        XZ       0.7101     YZ      -4.5142     ZZ    -170.7172
    Octopole Moments (Debye-Ang^2)
       XXX    -399.2544    XXY     290.2565    XYY    -130.2159
       YYY     895.7882    XXZ     -66.4745    XYZ     -15.8711
       YYZ     -20.4389    XZZ    -150.3505    YZZ     331.3385
       ZZZ    -135.5043
    Hexadecapole Moments (Debye-Ang^3)
      XXXX   -7457.9385   XXXY     974.7345   XXYY   -2612.6571
      XYYY    1034.7004   YYYY   -8258.2043   XXXZ     284.5925
      XXYZ     218.1391   XYYZ     214.3293   YYYZ     655.7825
      XXZZ   -1698.8619   XYZZ     445.3476   YYZZ   -1795.0608
      XZZZ     335.4007   YZZZ     698.4816   ZZZZ   -1959.0070
 -----------------------------------------------------------------
 Calculating analytic gradient of the SCF energy
 Gradient of SCF Energy
            1           2           3           4           5           6
    1  -0.0029200  -0.0013905   0.0049710   0.0044159   0.0009871  -0.0030924
    2  -0.0004053  -0.0028164  -0.0057881   0.0009474   0.0037595  -0.0017029
    3  -0.0018703  -0.0011555   0.0007818  -0.0006852   0.0017284  -0.0001839
            7           8           9          10          11          12
    1   0.0023366   0.0031388  -0.0015963  -0.0003972  -0.0009845  -0.0002293
    2   0.0013094   0.0009428   0.0016915   0.0004267   0.0002625  -0.0006057
    3   0.0008532   0.0011544   0.0002129   0.0000266  -0.0003433  -0.0001083
           13          14          15          16          17          18
    1   0.0009172   0.0020298   0.0001416  -0.0018528  -0.0018388   0.0007091
    2  -0.0019510   0.0021784   0.0015696  -0.0019261  -0.0028920  -0.0007295
    3  -0.0002779   0.0002549  -0.0015095  -0.0007983  -0.0012639   0.0009936
           19          20          21          22          23          24
    1   0.0006103  -0.0003633  -0.0000415  -0.0022756  -0.0033347  -0.0003647
    2  -0.0000179   0.0005839   0.0010470   0.0047999  -0.0022249   0.0039935
    3   0.0001752  -0.0001692   0.0002015  -0.0000450   0.0001129  -0.0009786
           25          26          27          28          29          30
    1  -0.0030960  -0.0006050  -0.0000274  -0.0011834   0.0055652  -0.0007316
    2  -0.0076883   0.0001687   0.0028653   0.0003812   0.0007376  -0.0050143
    3   0.0025043  -0.0018157   0.0019891  -0.0020042  -0.0000826   0.0040331
           31          32          33          34          35          36
    1  -0.0042067   0.0024792   0.0006540   0.0001049   0.0006324   0.0010703
    2   0.0034918   0.0005144  -0.0009057  -0.0009181   0.0031421   0.0004360
    3  -0.0012917  -0.0013853   0.0001368   0.0000147  -0.0017317   0.0015311
           37          38          39          40          41          42
    1  -0.0011233   0.0013233  -0.0027943  -0.0009469   0.0001383   0.0013741
    2  -0.0012217  -0.0010637   0.0007162   0.0006614   0.0002252   0.0001198
    3   0.0010614   0.0005597   0.0002285   0.0001743  -0.0004002  -0.0005498
           43          44          45          46          47          48
    1   0.0011629   0.0003315  -0.0009919   0.0013375   0.0025596  -0.0033450
    2   0.0021061   0.0003177  -0.0034668   0.0007067  -0.0004253   0.0016529
    3   0.0021336  -0.0010732   0.0009761   0.0030928  -0.0033316  -0.0009843
           49          50          51          52          53
    1   0.0014013  -0.0019440   0.0022059  -0.0011665   0.0002458
    2   0.0030497   0.0017265  -0.0002969  -0.0035172  -0.0009534
    3   0.0004818  -0.0005839  -0.0035555   0.0016265   0.0011389
 Max gradient component =       7.688E-03
 RMS gradient           =       2.005E-03
 Gradient time:  CPU 231.38 s  wall 17.52 s
 Geometry Optimization Parameters
   NAtoms,    NIC,     NZ,  NCons,   NDum,   NFix, NCnnct, MaxDiis
       53     426       0       0       0       0       0       0

 Cartesian Hessian Update
 Hessian updated using BFGS update


** GEOMETRY OPTIMIZATION IN DELOCALIZED INTERNAL COORDINATES **
   Searching for a Minimum

   Optimization Cycle:   3

                       Coordinates (Angstroms)
     ATOM                X               Y               Z
      1  C        -1.7995427487   -0.3943535427   -0.0347928213
      2  C        -1.3562711265   -1.7458502308   -0.0020026231
      3  C         0.1007126342   -1.7762204606    0.2922719550
      4  C         0.4824776526   -0.3536057802    0.4909264653
      5  C        -0.6631245381    0.4698217269    0.3062832455
      6  C        -3.1211208031   -0.0738091756   -0.3509080658
      7  C        -4.0091650379   -1.0993688878   -0.6641183692
      8  C        -3.5712456536   -2.4285699113   -0.6778919491
      9  C        -2.2553592193   -2.7574479924   -0.3600586684
     10  H        -3.4519350419    0.9619045782   -0.3628610461
     11  H        -5.0423412024   -0.8675686748   -0.9127405030
     12  H        -4.2666970666   -3.2211252793   -0.9431747610
     13  H        -1.9475373746   -3.7984661771   -0.4030817686
     14  C        -0.5992753180    1.8512824139    0.4956891001
     15  C         1.6635545910    0.2272625847    0.9652749915
     16  C         0.6037718265    2.4181521571    0.9090128150
     17  C         1.7166125388    1.6059642654    1.1577948331
     18  H         2.5314607345   -0.3795155280    1.2002679422
     19  H         2.6407184443    2.0545548731    1.5137149720
     20  H        -1.4777742810    2.4739253377    0.3430573162
     21  H         0.6730963822    3.4926875551    1.0631510042
     22  C         0.8851935266   -2.9001672524    0.3966366926
     23  C         0.3487475100   -4.2716206393    0.8785902777
     24  C         2.3277325649   -3.0419392292    0.1603311009
     25  C         1.6198676043   -5.1287942787    1.1433568521
     26  C         2.7640416627   -4.2833872694    0.6408757869
     27  H         1.5937840720   -6.0901464761    0.6285906972
     28  H         1.7248061942   -5.3577578023    2.2064274361
     29  C         4.1243413196   -4.6662247352    0.6086349279
     30  C         5.0452525112   -3.8301030922    0.0275004503
     31  C         3.2479075137   -2.2290850254   -0.6027134284
     32  C         4.6370631613   -2.6252460326   -0.6240833102
     33  H         4.4332793126   -5.6194307131    1.0325102253
     34  H         6.0962060337   -4.1080034335    0.0006313928
     35  C         5.5733783616   -1.8325603677   -1.3445284882
     36  C         2.8656764183   -1.1227064719   -1.4004933020
     37  C         3.7980959384   -0.3951859109   -2.1100633583
     38  C         5.1699337185   -0.7327267407   -2.0654342206
     39  H         1.8176052137   -0.8574486256   -1.4720064628
     40  H         3.4638029109    0.4470687354   -2.7105660297
     41  H         6.6188548426   -2.1306993486   -1.3399322110
     42  H         5.8997870285   -0.1470538886   -2.6198800125
     43  H        -0.2146449203   -4.7381989842    0.0659371821
     44  C        -0.5796626386   -4.2116243863    2.1221463709
[...]
  H     -0.63151426     -3.46462471      4.17732104
  H      0.49063958     -2.56181762      3.15440055
  H     -1.40492306     -3.53879045      1.86325624
  53
Step 5
  C     -1.79594333     -0.40444136     -0.00723000
  C     -1.35491312     -1.75305492     -0.01115149
  C      0.09846191     -1.78667132      0.27918401
  C      0.47564880     -0.37460711      0.52348406
  C     -0.67179903      0.44470710      0.37484173
  C     -3.10593878     -0.07116677     -0.34694663
  C     -3.99432042     -1.08526511     -0.70902415
  C     -3.56378721     -2.41657306     -0.74509034
  C     -2.25115808     -2.75434872     -0.40810678
  H     -3.42940436      0.96592031     -0.34086448
  H     -5.01877869     -0.84123894     -0.97295200
  H     -4.25627045     -3.19870402     -1.04208806
  H     -1.94503854     -3.79230361     -0.46440555
  C     -0.62065746      1.81242474      0.63970590
  C      1.65846599      0.19576170      1.01075682
  C      0.57899634      2.37473588      1.07967376
  C      1.70473114      1.56626345      1.27568399
  H      2.53814643     -0.41137861      1.18417036
  H      2.62711264      2.00742566      1.64163099
  H     -1.50729516      2.42971653      0.52514313
  H      0.63503802      3.43890054      1.28779076
  C      0.89263178     -2.91287467      0.36997465
  C      0.37246257     -4.27552593      0.87288539
  C      2.33550840     -3.04809576      0.13788793
  C      1.65632184     -5.10196994      1.17167517
  C      2.78582187     -4.26145046      0.65965298
  H      1.65098324     -6.08000027      0.67313241
  H      1.76333733     -5.30974512      2.24293922
  C      4.14262904     -4.63164040      0.63665451
  C      5.05794577     -3.80015245      0.03382958
  C      3.24940702     -2.25336131     -0.64925022
  C      4.63623386     -2.62810629     -0.64902343
  H      4.45736727     -5.56517267      1.09410834
  H      6.11467617     -4.05361079      0.02439327
  C      5.56964504     -1.85579144     -1.38658887
  C      2.85957736     -1.18301820     -1.49369180
  C      3.78702877     -0.47292549     -2.22881180
  C      5.15959866     -0.78932303     -2.15470254
  H      1.81244048     -0.93056528     -1.57545100
  H      3.45385842      0.33509355     -2.87290935
  H      6.61785038     -2.14159600     -1.35332828
  H      5.88203532     -0.21139404     -2.72237306
  H     -0.17246361     -4.78441038      0.06436021
  C     -0.58972644     -4.18242258      2.09533547
  C     -1.08818480     -5.57865511      2.49900613
  H     -1.57379886     -6.08898094      1.65759616
  H     -1.81795822     -5.50821241      3.31468588
  H     -0.26680090     -6.21793416      2.84763393
  C      0.01045788     -3.44138705      3.30190513
  H      0.85882353     -3.97981731      3.74042152
  H     -0.74465671     -3.33647092      4.09012266
  H      0.34974826     -2.43673268      3.02820045
  H     -1.46189735     -3.60576283      1.77459332
  53
Step 6
  C     -1.79426516     -0.39894401     -0.03033110
  C     -1.35159416     -1.74763611     -0.02177256
  C      0.09817140     -1.77939137      0.28563353
  C      0.47544617     -0.36359182      0.51491214
  C     -0.67179279      0.45469486      0.34960367
  C     -3.10196094     -0.06972886     -0.38382285
  C     -3.98475591     -1.08744764     -0.74776207
  C     -3.55107846     -2.41797519     -0.77385902
  C     -2.24125569     -2.75209119     -0.42427770
  H     -3.42760918      0.96681964     -0.38812010
  H     -5.00700748     -0.84630499     -1.02363667
  H     -4.23903367     -3.20294223     -1.07413540
  H     -1.93182529     -3.79001891     -0.47412857
  C     -0.62295571      1.82550934      0.59967668
  C      1.65458012      0.21319512      1.00311196
  C      0.57351310      2.39254535      1.04023049
  C      1.69811778      1.58643167      1.25154600
  H      2.53295082     -0.39109923      1.19215416
  H      2.61790613      2.03160112      1.61934068
  H     -1.50891666      2.44183118      0.47349614
  H      0.62715401      3.45893001      1.23865082
  C      0.88951027     -2.90564471      0.39232612
  C      0.36695712     -4.26740351      0.90000044
  C      2.33075099     -3.04346981      0.15351147
  C      1.64984962     -5.10209642      1.17953369
  C      2.77958525     -4.26411802      0.66113052
  H      1.63251739     -6.07733233      0.67757671
  H      1.76695405     -5.31546202      2.24861132
  C      4.13490507     -4.64126648      0.62207982
  C      5.04831384     -3.81037915      0.01553549
  C      3.24110829     -2.24521041     -0.63394490
  C      4.62616839     -2.62872121     -0.65298432
  H      4.44963732     -5.58081250      1.06774043
  H      6.10285038     -4.07204722     -0.00854055
  C      5.55596943     -1.85308053     -1.39353132
  C      2.84767486     -1.16158506     -1.45954734
  C      3.77141675     -0.44813882     -2.19581519
  C      5.14322575     -0.77509847     -2.14362412
  H      1.80078075     -0.90048238     -1.52443060
  H      3.43569811      0.37087580     -2.82475295
  H      6.60295684     -2.14459326     -1.37628629
  H      5.86278981     -0.19472658     -2.71310709
  H     -0.19303083     -4.76908154      0.09789321
  C     -0.57148956     -4.18325419      2.14096127
  C     -1.12365813     -5.57284315      2.49685880
  H     -1.64382322     -6.02841832      1.64588116
  H     -1.83620013     -5.50524676      3.32618853
  H     -0.32677312     -6.25989749      2.80583598
  C      0.08120802     -3.52032038      3.36443295
  H      0.91347397     -4.11182696      3.76279840
  H     -0.65471887     -3.41975124      4.16941534
  H      0.45702566     -2.52041127      3.12949926
  H     -1.42322248     -3.55845235      1.86131356
  53
Step 7
  C     -1.80181294     -0.40478213     -0.01357338
  C     -1.35755356     -1.75413294     -0.01333137
  C      0.09775668     -1.78501884      0.27121227
  C      0.47674462     -0.37039459      0.50094888
  C     -0.67343411      0.44879095      0.35288209
  C     -3.11539591     -0.07635074     -0.34651398
  C     -4.00256068     -1.09429593     -0.69687174
  C     -3.56832507     -2.42426545     -0.73015433
  C     -2.25379435     -2.75853464     -0.40105734
  H     -3.44276247      0.95984583     -0.34391082
  H     -5.02951378     -0.85381558     -0.95656227
  H     -4.26073693     -3.20955225     -1.01996914
  H     -1.94544664     -3.79655783     -0.45702990
  C     -0.62007817      1.81913825      0.60529500
  C      1.66273203      0.20414375      0.97364762
  C      0.58285021      2.38375035      1.03027623
  C      1.70973510      1.57628999      1.22412564
  H      2.54370002     -0.40167572      1.14958092
  H      2.63534721      2.01999745      1.57946880
  H     -1.50701741      2.43689097      0.49182473
  H      0.64025392      3.44996260      1.23011087
  C      0.89189612     -2.90921051      0.37196995
  C      0.37414543     -4.26968782      0.88673810
  C      2.33530604     -3.04005411      0.14370148
  C      1.65897021     -5.09189702      1.19177263
  C      2.78830731     -4.25237078      0.67098317
  H      1.65375895     -6.07452580      0.70654100
  H      1.76415933     -5.28710235      2.26506963
  C      4.14757890     -4.61954144      0.65108409
  C      5.06083657     -3.78877788      0.04555628
  C      3.24911433     -2.24118349     -0.64067237
  C      4.63790162     -2.61610203     -0.64041064
  H      4.46512136     -5.55153622      1.11099010
  H      6.11729008     -4.04398004      0.03516683
  C      5.57115673     -1.84037353     -1.37810169
  C      2.85852623     -1.16894005     -1.48255731
  C      3.78608599     -0.45667701     -2.21437751
  C      5.16009985     -0.77301105     -2.14299932
  H      1.81043886     -0.91782920     -1.56532612
  H      3.45144591      0.35352697     -2.85557386
  H      6.61980709     -2.12479294     -1.34662271
  H      5.88265716     -0.19381832     -2.71052554
  H     -0.17334509     -4.78170103      0.08439048
  C     -0.57867992     -4.17691302      2.11418651
  C     -1.15916910     -5.55909788      2.45386873
  H     -1.67925971     -5.99947176      1.59616356
  H     -1.87764615     -5.48473250      3.27582042
  H     -0.37930564     -6.26244731      2.76526347
  C      0.07456811     -3.53472281      3.34817875
  H      0.89366262     -4.14300676      3.74701588
  H     -0.66565022     -3.42945355      4.14709830
  H      0.46825122     -2.54010764      3.12599308
  H     -1.41651795     -3.53580463      1.82828587
  53
Step 8
  C     -1.80038918     -0.40142415     -0.02513806
  C     -1.35996415     -1.75160248     -0.02490092
  C      0.09254487     -1.78715016      0.27434525
  C      0.47296338     -0.37371894      0.50940545
  C     -0.67396588      0.44789245      0.35463463
  C     -3.10914271     -0.06776190     -0.37121560
  C     -3.99556073     -1.08162395     -0.73575262
  C     -3.56472072     -2.41262943     -0.77042074
  C     -2.25457965     -2.75173535     -0.42803493
  H     -3.43324019      0.96937239     -0.36840466
  H     -5.01868003     -0.83697396     -1.00592935
  H     -4.25594996     -3.19454765     -1.07165943
  H     -1.94863049     -3.79010839     -0.48554633
  C     -0.62045377      1.81720608      0.61210427
  C      1.65611428      0.19744293      0.99362083
  C      0.57989071      2.37877227      1.04896522
  C      1.70377684      1.56886736      1.24943084
  H      2.53439169     -0.41032630      1.17488084
  H      2.62712283      2.00978444      1.61380824
  H     -1.50533958      2.43666519      0.49301778
  H      0.63734450      3.44413415      1.25259076
  C      0.88553453     -2.91261347      0.37616703
  C      0.36831047     -4.27276861      0.89238712
  C      2.32878054     -3.04432682      0.14515513
  C      1.65305933     -5.10055875      1.18264338
  C      2.78135307     -4.26000866      0.66376644
  H      1.64300588     -6.07940697      0.68885607
  H      1.76451181     -5.30509476      2.25369149
  C      4.13925321     -4.63002377      0.63628942
  C      5.05222754     -3.79762179      0.03208172
  C      3.24115450     -2.24437721     -0.63927016
  C      4.62883102     -2.62125015     -0.64578638
  H      4.45638746     -5.56515617      1.08975329
  H      6.10814471     -4.05454213      0.01644682
  C      5.56080489     -1.84409628     -1.38293362
  C      2.84923282     -1.16793992     -1.47520830
  C      3.77529578     -0.45384919     -2.20736213
  C      5.14877855     -0.77257416     -2.14179414
  H      1.80151898     -0.91430954     -1.55270417
  H      3.44011971      0.35965225     -2.84394268
  H      6.60903180     -2.13043730     -1.35621006
  H      5.87000716     -0.19180151     -2.70909684
  H     -0.18769399     -4.78238337      0.09380251
  C     -0.57179888     -4.18019013      2.13080872
  C     -1.12436712     -5.56743425      2.49446576
  H     -1.64910713     -6.02582134      1.64853300
  H     -1.83251045     -5.49566837      3.32634104
  H     -0.32756583     -6.25412506      2.80214465
  C      0.08373441     -3.51113105      3.34968202
  H      0.91496789     -4.10209350      3.75000012
  H     -0.65062026     -3.40403446      4.15453334
  H      0.46153739     -2.51403847      3.10865244
  H     -1.42325184     -3.55641970      1.84737553
  53
Step 9
  C     -1.79715363     -0.40197944     -0.02571687
  C     -1.35253091     -1.75012197     -0.01748148
  C      0.09890321     -1.77961439      0.28248649
  C      0.47490375     -0.36358876      0.51184171
  C     -0.67440299      0.45304282      0.35051621
  C     -3.10645190     -0.07511544     -0.37562573
  C     -3.98901437     -1.09468232     -0.73485345
  C     -3.55396085     -2.42472063     -0.75970235
  C     -2.24261922     -2.75663038     -0.41405183
  H     -3.43411254      0.96081238     -0.37974785
  H     -5.01250367     -0.85523837     -1.00779278
  H     -4.24222771     -3.21106788     -1.05581437
  H     -1.93218609     -3.79424714     -0.46285178
  C     -0.62704711      1.82367222      0.60181300
  C      1.65466105      0.21497112      0.99622328
  C      0.57001793      2.39246028      1.03861476
  C      1.69658865      1.58804968      1.24560148
  H      2.53491117     -0.38781201      1.18212551
  H      2.61718468      2.03439540      1.61006380
  H     -1.51436912      2.43869783      0.47876065
  H      0.62243615      3.45882600      1.23765828
  C      0.89159454     -2.90505513      0.38790711
  C      0.36899528     -4.26591774      0.89577320
  C      2.33324762     -3.04216660      0.15086589
  C      1.65143907     -5.09999613      1.17927045
  C      2.78173906     -4.26200990      0.66190379
  H      1.63592663     -6.07617860      0.67939731
  H      1.76598093     -5.31124175      2.24891075
  C      4.13726946     -4.63854635      0.62666903
  C      5.05171251     -3.80811951      0.02112560
  C      3.24527503     -2.24484836     -0.63581315
  C      4.63060264     -2.62784720     -0.65037369
  H      4.45160832     -5.57726293      1.07439147
  H      6.10627308     -4.06990641     -0.00050478
  C      5.56255377     -1.85271947     -1.38920298
  C      2.85395113     -1.16297087     -1.46495924
  C      3.77964088     -0.45037857     -2.19929973
  C      5.15165756     -0.77623332     -2.14208828
  H      1.80721795     -0.90288084     -1.53445921
  H      3.44556582      0.36744599     -2.83073933
  H      6.60955527     -2.14387455     -1.36834887
  H      5.87251228     -0.19630509     -2.71046730
  H     -0.18969857     -4.76872674      0.09396848
  C     -0.57229323     -4.17677786      2.13448667
  C     -1.13914587     -5.56196995      2.48341210
  H     -1.66765875     -6.00608506      1.63169746
  H     -1.84755443     -5.49181959      3.31587089
  H     -0.34885368     -6.25972627      2.78459870
  C      0.08562435     -3.52544355      3.36190083
  H      0.90921608     -4.12886309      3.76007226
  H     -0.65070468     -3.41773097      4.16547802
  H      0.47481157     -2.52990685      3.13070260
  H     -1.41688810     -3.54195579      1.85485726
  53
Step 10
  C     -1.79947731     -0.40193844     -0.02477679
  C     -1.35701833     -1.75123139     -0.02079792
  C      0.09534927     -1.78381503      0.27718692
  C      0.47385011     -0.36916782      0.50913169
  C     -0.67432863      0.45020234      0.35192142
  C     -3.10888369     -0.07165767     -0.37141606
  C     -3.99386772     -1.08838940     -0.73189060
  C     -3.56114266     -2.41898751     -0.76150094
  C     -2.25009188     -2.75459743     -0.41892205
  H     -3.43472805      0.96490613     -0.37199171
  H     -5.01747068     -0.84630406     -1.00239737
  H     -4.25142297     -3.20317201     -1.05888479
  H     -1.94226882     -3.79273445     -0.47172511
  C     -0.62342994      1.82019160      0.60617053
  C      1.65578607      0.20551068      0.99235206
  C      0.57574809      2.38513660      1.04196068
  C      1.70099510      1.57776027      1.24474043
  H      2.53515305     -0.39993352      1.17525702
  H      2.62341462      2.02120890      1.60830180
  H     -1.50953495      2.43761413      0.48581971
  H      0.63103507      3.45101667      1.24325188
  C      0.88830354     -2.90918424      0.38039579
  C      0.36861404     -4.26963804      0.89276711
  C      2.33089874     -3.04308069      0.14726160
  C      1.65217595     -5.10011951      1.18078549
  C      2.78160937     -4.26041228      0.66331678
  H      1.64013198     -6.07764445      0.68412368
  H      1.76413602     -5.30786672      2.25126738
  C      4.13862939     -4.63293943      0.63362340
  C      5.05251060     -3.80131022      0.02935000
  C      3.24356885     -2.24417613     -0.63753853
  C      4.63036765     -2.62343463     -0.64635792
  H      4.45445989     -5.56948148      1.08501073
  H      6.10790203     -4.06018980      0.01193179
  C      5.56278453     -1.84702838     -1.38367590
  C      2.85233080     -1.16567860     -1.47116250
  C      3.77866356     -0.45220303     -2.20363174
  C      5.15161471     -0.77364429     -2.14049559
  H      1.80498781     -0.90967412     -1.54629942
  H      3.44426182      0.36293014     -2.83847889
  H      6.61052535     -2.13524404     -1.35857973
  H      5.87299045     -0.19316723     -2.70783289
  H     -0.18860224     -4.77629803      0.09290481
  C     -0.57216770     -4.17820335      2.13105997
  C     -1.13372811     -5.56393492      2.48645742
  H     -1.66295884     -6.01299414      1.63815007
  H     -1.84008554     -5.49296889      3.32012505
  H     -0.34090141     -6.25806866      2.78815016
  C      0.08602517     -3.51983491      3.35441409
  H      0.91240318     -4.11883151      3.75307182
  H     -0.64895282     -3.41154420      4.15870787
  H      0.47127763     -2.52417706      3.11874307
  H     -1.41924217     -3.54748575      1.84971423
  53
Step 11
  C     -1.79974173     -0.40206965     -0.02521058
  C     -1.35737308     -1.75139624     -0.02088628
  C      0.09505907     -1.78396458      0.27694540
  C      0.47358105     -0.36931169      0.50876459
  C     -0.67456243      0.45008356      0.35138024
  C     -3.10913671     -0.07177946     -0.37189751
  C     -3.99423348     -1.08853657     -0.73200356
  C     -3.56164003     -2.41918022     -0.76117724
  C     -2.25060667     -2.75480875     -0.41855569
  H     -3.43490756      0.96480797     -0.37273148
  H     -5.01781955     -0.84643816     -1.00256855
  H     -4.25202699     -3.20339446     -1.05824059
  H     -1.94294927     -3.79300492     -0.47097265
  C     -0.62364967      1.82009605      0.60546855
  C      1.65547326      0.20538697      0.99204947
  C      0.57551241      2.38505880      1.04129912
  C      1.70069577      1.57766227      1.24430808
  H      2.53480709     -0.40005304      1.17515747
  H      2.62310066      2.02109775      1.60792571
  H     -1.50972210      2.43753066      0.48493192
  H      0.63081411      3.45096328      1.24246298
  C      0.88803913     -2.90932424      0.38000903
  C      0.36828538     -4.26968484      0.89246231
  C      2.33068114     -3.04319560      0.14706527
  C      1.65169262     -5.10077675      1.17941749
  C      2.78127514     -4.26072471      0.66282864
  H      1.63946285     -6.07767141      0.68152773
  H      1.76366196     -5.30991683      2.24960881
  C      4.13831406     -4.63318992      0.63347240
  C      5.05238153     -3.80130626      0.02982727
  C      3.24357433     -2.24411315     -0.63727640
  C      4.63040348     -2.62328322     -0.64570429
  H      4.45403729     -5.56987377      1.08464239
  H      6.10778967     -4.06013840      0.01271263
  C      5.56303805     -1.84663564     -1.38251975
  C      2.85254594     -1.16554064     -1.47091625
  C      3.77908048     -0.45186483     -2.20291602
  C      5.15205622     -0.77315720     -2.13928742
  H      1.80520126     -0.90966411     -1.54645666
  H      3.44484212      0.36332993     -2.83777188
  H      6.61078831     -2.13478611     -1.35708854
  H      5.87358041     -0.19249747     -2.70625044
  H     -0.18980565     -4.77593372      0.09297707
  C     -0.57158388     -4.17781656      2.13152108
  C     -1.13393282     -5.56318981      2.48697967
  H     -1.66555636     -6.01090761      1.63946114
  H     -1.83835948     -5.49217214      3.32226245
  H     -0.34122683     -6.25847860      2.78625338
  C      0.08798663     -3.52005632      3.35450611
  H      0.91394766     -4.11989560      3.75272475
  H     -0.64641410     -3.41092170      4.15920158
  H      0.47413590     -2.52483545      3.11849960
  H     -1.41839660     -3.54643686      1.85084745

======= END OF MOLDEN-FORMATTED INPUT FILE =======


        *************************************************************
        *                                                           *
        *  Thank you very much for using Q-Chem.  Have a nice day.  *
        *                                                           *
        *************************************************************


0 sent ACK to 0 
now end server 0 ... 
