Process 0 of 1 is on gollum134.lsa.umich.edu - thread support 0
initial socket setup ...start
initial socket setup ...done 
now start server 0 ... 
                  Welcome to Q-Chem
     A Quantum Leap Into The Future Of Chemistry


 Q-Chem 5.2 (devel), Q-Chem, Inc., Pleasanton, CA (2019)

 Yihan Shao,  Zhengting Gan,  E. Epifanovsky,  A. T. B. Gilbert,  M. Wormit,  
 J. Kussmann,  A. W. Lange,  A. Behn,  Jia Deng,  Xintian Feng,  D. Ghosh,  
 M. Goldey,  P. R. Horn,  L. D. Jacobson,  I. Kaliman,  T. Kus,  A. Landau,  
 Jie Liu,  E. I. Proynov,  R. M. Richard,  R. P. Steele,  E. J. Sundstrom,  
 H. L. Woodcock III,  P. M. Zimmerman,  D. Zuev,  B. Albrecht,  E. Alguire,  
 S. A. Baeppler,  D. Barton,  Z. Benda,  Y. A. Bernard,  E. J. Berquist,  
 K. B. Bravaya,  H. Burton,  D. Casanova,  Chun-Min Chang,  Yunqing Chen,  
 A. Chien,  K. D. Closser,  M. P. Coons,  S. Coriani,  S. Dasgupta,  
 A. L. Dempwolff,  M. Diedenhofen,  Hainam Do,  R. G. Edgar,  Po-Tung Fang,  
 S. Faraji,  S. Fatehi,  Qingguo Feng,  K. D. Fenk,  J. Fosso-Tande,  
 J. Gayvert,  Qinghui Ge,  A. Ghysels,  G. Gidofalvi,  J. Gomes,  
 J. Gonthier,  A. Gunina,  D. Hait,  M. W. D. Hanson-Heine,  
 P. H. P. Harbach,  A. W. Hauser,  J. E. Herr,  E. G. Hohenstein,  
 Z. C. Holden,  Kerwin Hui,  B. C. Huynh,  T.-C. Jagau,  Hyunjun Ji,  
 B. Kaduk,  K. Khistyaev,  Jaehoon Kim,  P. Klunzinger,  K. Koh,  
 D. Kosenkov,  L. Koulias,  T. Kowalczyk,  C. M. Krauter,  A. Kunitsa,  
 Ka Un Lao,  A. Laurent,  K. V. Lawler,  Joonho Lee,  D. Lefrancois,  
 S. Lehtola,  D. S. Levine,  Yi-Pei Li,  You-Sheng Lin,  Fenglai Liu,  
 E. Livshits,  A. Luenser,  P. Manohar,  E. Mansoor,  S. F. Manzer,  
 Shan-Ping Mao,  Yuezhi Mao,  N. Mardirossian,  A. V. Marenich,  
 T. Markovich,  L. A. Martinez-Martinez,  S. A. Maurer,  N. J. Mayhall,  
 S. C. McKenzie,  J.-M. Mewes,  A. F. Morrison,  J. W. Mullinax,  K. Nanda,  
 T. S. Nguyen-Beck,  R. Olivares-Amaya,  J. A. Parkhill,  T. M. Perrine,  
 F. Plasser,  P. Pokhilko,  S. Prager,  A. Prociuk,  E. Ramos,  D. R. Rehn,  
 F. Rob,  M. Schneider,  N. Sergueev,  S. M. Sharada,  S. Sharma,  
 D. W. Small,  T. Stauch,  T. Stein,  Yu-Chuan Su,  A. J. W. Thom,  
 A. Tkatchenko,  T. Tsuchimochi,  N. M. Tubman,  L. Vogt,  M. L. Vidal,  
 O. Vydrov,  M. A. Watson,  J. Wenzel,  M. de Wergifosse,  T. A. Wesolowski,  
 A. White,  J. Witte,  A. Yamada,  Jun Yang,  K. Yao,  S. Yeganeh,  
 S. R. Yost,  Zhi-Qiang You,  A. Zech,  Igor Ying Zhang,  Xing Zhang,  
 Yan Zhao,  Ying Zhu,  B. R. Brooks,  G. K. L. Chan,  C. J. Cramer,  
 M. S. Gordon,  W. J. Hehre,  A. Klamt,  M. W. Schmidt,  C. D. Sherrill,  
 D. G. Truhlar,  A. Aspuru-Guzik,  R. Baer,  A. T. Bell,  N. A. Besley,  
 Jeng-Da Chai,  A. E. DePrince, III,  R. A. DiStasio Jr.,  A. Dreuw,  
 B. D. Dunietz,  T. R. Furlani,  Chao-Ping Hsu,  Yousung Jung,  Jing Kong,  
 D. S. Lambrecht,  WanZhen Liang,  C. Ochsenfeld,  V. A. Rassolov,  
 L. V. Slipchenko,  J. E. Subotnik,  T. Van Voorhis,  J. M. Herbert,  
 A. I. Krylov,  P. M. W. Gill,  M. Head-Gordon

 Contributors to earlier versions of Q-Chem not listed above: 
 R. D. Adamson,  B. Austin,  J. Baker,  G. J. O. Beran,  K. Brandhorst,  
 S. T. Brown,  E. F. C. Byrd,  A. K. Chakraborty,  C.-L. Cheng,  
 Siu Hung Chien,  D. M. Chipman,  D. L. Crittenden,  H. Dachsel,  
 R. J. Doerksen,  A. D. Dutoi,  L. Fusti-Molnar,  W. A. Goddard III,  
 A. Golubeva-Zadorozhnaya,  S. R. Gwaltney,  G. Hawkins,  A. Heyden,  
 S. Hirata,  G. Kedziora,  F. J. Keil,  C. Kelley,  Jihan Kim,  R. A. King,  
 R. Z. Khaliullin,  P. P. Korambath,  W. Kurlancheek,  A. M. Lee,  M. S. Lee,  
 S. V. Levchenko,  Ching Yeh Lin,  D. Liotard,  R. C. Lochan,  I. Lotan,  
 P. E. Maslen,  N. Nair,  D. P. O'Neill,  D. Neuhauser,  E. Neuscamman,  
 C. M. Oana,  R. Olson,  B. Peters,  R. Peverati,  P. A. Pieniazek,  
 Y. M. Rhee,  J. Ritchie,  M. A. Rohrdanz,  E. Rosta,  N. J. Russ,  
 H. F. Schaefer III,  N. E. Schultz,  N. Shenvi,  A. C. Simmonett,  A. Sodt,  
 D. Stuck,  K. S. Thanthiriwatte,  V. Vanovschi,  Tao Wang,  A. Warshel,  
 C. F. Williams,  Q. Wu,  X. Xu,  W. Zhang

 Please cite Q-Chem as follows:
 Y. Shao et al., Mol. Phys. 113, 184-215 (2015)
 DOI: 10.1080/00268976.2014.952696

 Q-Chem 5.2.0 for Intel X86 EM64T Linux

 Parts of Q-Chem use Armadillo 8.300.2 (Tropical Shenanigans).
 http://arma.sourceforge.net/

 Q-Chem begins on Mon Dec  9 15:28:11 2019  

Host: gollum134.lsa.umich.edu
0

     Scratch files written to /scratch/craldaz/830065/qchem1093//
 Parallel job on  1  processors

Checking the input file for inconsistencies... 	...done.

--------------------------------------------------------------
User input:
--------------------------------------------------------------
 $rem
 JOBTYPE OPT
 EXCHANGE B3LYP
 SCF_ALGORITHM diis
 SCF_MAX_CYCLES 300
 BASIS 6-31G**
 GEOM_OPT_MAX_CYCLES 300
 scf_convergence 8
 SYM_IGNORE TRUE
 SYMMETRY   FALSE

molden_format true
 $end

$molecule
0 1
C         -1.90182       -0.37469       -0.17825
C         -1.52483       -1.71131       -0.13649
C         -0.05761       -1.79365        0.17053
C          0.33698       -0.36344        0.37320
C         -0.75860        0.45293        0.14484
C         -3.20510        0.02500       -0.48031
C         -4.15332       -0.96027       -0.77611
C         -3.78522       -2.31448       -0.77865
C         -2.46985       -2.69724       -0.47213
H         -3.48190        1.07079       -0.49335
H         -5.16947       -0.67632       -1.01714
H         -4.52005       -3.06902       -1.02816
H         -2.23296       -3.74146       -0.51457
C         -0.69834        1.84108        0.28683
C          1.52106        0.20766        0.87366
C          0.50523        2.41622        0.71258
C          1.60604        1.60068        1.02034
H          2.36628       -0.39781        1.15996
H          2.52072        2.04802        1.38721
H         -1.56329        2.46251        0.09686
H          0.57625        3.48883        0.83794
C          0.73115       -2.91411        0.30793
C          0.20208       -4.27324        0.83483
C          2.22176       -3.03818        0.13482
C          1.46048       -5.18494        0.84634
C          2.60203       -4.29818        0.55371
H          1.41413       -5.92450        0.01722
H          1.65240       -5.74850        1.77410
C          3.92650       -4.72938        0.56634
C          4.92568       -3.87926        0.11154
C          3.21837       -2.22592       -0.50828
C          4.58430       -2.64796       -0.46326
H          4.17835       -5.72423        0.91185
H          5.95420       -4.22058        0.12647
C          5.59487       -1.86531       -1.04490
C          2.92954       -1.06830       -1.26231
C          3.94343       -0.30715       -1.84789
C          5.27398       -0.69206       -1.72139
H          1.92390       -0.74268       -1.44012
H          3.69272        0.58278       -2.41103
H          6.63215       -2.17647       -1.00121
H          6.05517       -0.09963       -2.18008
H         -0.54244       -4.73203        0.16398
C         -0.38622       -4.21083        2.33666
C         -0.84579       -5.62742        2.78769
H         -1.62712       -6.01492        2.09864
H         -1.27810       -5.59550        3.81177
H         -0.03728       -6.37874        2.83166
C          0.66781       -3.66587        3.33953
C         -1.63739       -3.31937        2.50241
H          1.58198       -4.28772        3.39099
H          0.25165       -3.63328        4.36992
H          0.97193       -2.63351        3.06361
H         -2.47198       -3.67634        1.87026
H         -1.42019       -2.25125        2.32680
H         -2.01011       -3.36024        3.54963
$end
--------------------------------------------------------------
 ----------------------------------------------------------------
             Standard Nuclear Orientation (Angstroms)
    I     Atom           X                Y                Z
 ----------------------------------------------------------------
    1      C      -1.9018200000    -0.3746900000    -0.1782500000
    2      C      -1.5248300000    -1.7113100000    -0.1364900000
    3      C      -0.0576100000    -1.7936500000     0.1705300000
    4      C       0.3369800000    -0.3634400000     0.3732000000
    5      C      -0.7586000000     0.4529300000     0.1448400000
    6      C      -3.2051000000     0.0250000000    -0.4803100000
    7      C      -4.1533200000    -0.9602700000    -0.7761100000
    8      C      -3.7852200000    -2.3144800000    -0.7786500000
    9      C      -2.4698500000    -2.6972400000    -0.4721300000
   10      H      -3.4819000000     1.0707900000    -0.4933500000
   11      H      -5.1694700000    -0.6763200000    -1.0171400000
   12      H      -4.5200500000    -3.0690200000    -1.0281600000
   13      H      -2.2329600000    -3.7414600000    -0.5145700000
   14      C      -0.6983400000     1.8410800000     0.2868300000
   15      C       1.5210600000     0.2076600000     0.8736600000
   16      C       0.5052300000     2.4162200000     0.7125800000
   17      C       1.6060400000     1.6006800000     1.0203400000
   18      H       2.3662800000    -0.3978100000     1.1599600000
   19      H       2.5207200000     2.0480200000     1.3872100000
   20      H      -1.5632900000     2.4625100000     0.0968600000
   21      H       0.5762500000     3.4888300000     0.8379400000
   22      C       0.7311500000    -2.9141100000     0.3079300000
   23      C       0.2020800000    -4.2732400000     0.8348300000
   24      C       2.2217600000    -3.0381800000     0.1348200000
   25      C       1.4604800000    -5.1849400000     0.8463400000
   26      C       2.6020300000    -4.2981800000     0.5537100000
   27      H       1.4141300000    -5.9245000000     0.0172200000
   28      H       1.6524000000    -5.7485000000     1.7741000000
   29      C       3.9265000000    -4.7293800000     0.5663400000
   30      C       4.9256800000    -3.8792600000     0.1115400000
   31      C       3.2183700000    -2.2259200000    -0.5082800000
   32      C       4.5843000000    -2.6479600000    -0.4632600000
   33      H       4.1783500000    -5.7242300000     0.9118500000
   34      H       5.9542000000    -4.2205800000     0.1264700000
   35      C       5.5948700000    -1.8653100000    -1.0449000000
   36      C       2.9295400000    -1.0683000000    -1.2623100000
   37      C       3.9434300000    -0.3071500000    -1.8478900000
   38      C       5.2739800000    -0.6920600000    -1.7213900000
   39      H       1.9239000000    -0.7426800000    -1.4401200000
   40      H       3.6927200000     0.5827800000    -2.4110300000
   41      H       6.6321500000    -2.1764700000    -1.0012100000
   42      H       6.0551700000    -0.0996300000    -2.1800800000
   43      H      -0.5424400000    -4.7320300000     0.1639800000
   44      C      -0.3862200000    -4.2108300000     2.3366600000
   45      C      -0.8457900000    -5.6274200000     2.7876900000
   46      H      -1.6271200000    -6.0149200000     2.0986400000
   47      H      -1.2781000000    -5.5955000000     3.8117700000
   48      H      -0.0372800000    -6.3787400000     2.8316600000
   49      C       0.6678100000    -3.6658700000     3.3395300000
   50      C      -1.6373900000    -3.3193700000     2.5024100000
   51      H       1.5819800000    -4.2877200000     3.3909900000
   52      H       0.2516500000    -3.6332800000     4.3699200000
   53      H       0.9719300000    -2.6335100000     3.0636100000
   54      H      -2.4719800000    -3.6763400000     1.8702600000
   55      H      -1.4201900000    -2.2512500000     2.3268000000
   56      H      -2.0101100000    -3.3602400000     3.5496300000
 ----------------------------------------------------------------
 Nuclear Repulsion Energy =  2807.7369710595 hartrees
 There are      103 alpha and      103 beta electrons
 Requested basis set is 6-31G(d,p)
 There are 198 shells and 580 basis functions

 Total QAlloc Memory Limit   2000 MB
 Mega-Array Size       188 MB
 MEM_STATIC part       192 MB
 A cutoff of  1.0D-11 yielded  10650 shell pairs
 There are     97373 function pairs
 
 -------------------------------------------------------
 OpenMP Integral Computing Module                       
 Release: version 1.0, May 2013, Q-Chem Inc. Pittsburgh 
 -------------------------------------------------------
 Integral Job Info:
 Integral job number is                      11
 Integral operator is                         1
 short-range coefficients                     0
 long-range coefficients              100000000
 Omega coefficients                           0
 if combine SR and LR in K                    0
 Integral screening is                        0
 Integral computing path is                   2
 max size of driver memory is            800000
 size of driver memory is                593474
 size of scratch memory is              2361544
 max col of scratch BK array               1296
 max len of scratch array in speh3          155
 max len of scratch index in speh4           18
 max int batch size is                      520
 min int batch size is                       52
 fixed nKL is                                52
 max L of basis functions is                  2
 order of int derivative is                   0
 number of shells is                        198
 number of basis is                         580
 number of cartesian basis is               580
 number of contracted shell pairs         10650
 number of primitive shell pairs          30371
 maxK2 (contraction) of shell pair           36
 max number of K2 of shell pair               1
 max number of CS2 of shell pair           1012
 max number of PS2 of shell pair           5118
 mem total for path MDJ                  691932
 -------------------------------------------------------
 Smallest overlap matrix eigenvalue = 2.27E-04

 Scale SEOQF with 1.000000e-02/1.000000e-02/1.000000e-01

 Standard Electronic Orientation quadrupole field applied
 Nucleus-field energy     =    -0.0000000231 hartrees
 Guess from superposition of atomic densities
 Warning:  Energy on first SCF cycle will be non-variational
 SAD guess density has 206.000001 electrons

 -----------------------------------------------------------------------
  General SCF calculation program by
  Eric Jon Sundstrom, Paul Horn, Yuezhi Mao, Dmitri Zuev, Alec White,
  David Stuck, Shaama M.S., Shane Yost, Joonho Lee, David Small,
  Daniel Levine, Susi Lehtola, Hugh Burton, Evgeny Epifanovsky
 -----------------------------------------------------------------------
 Exchange:     0.2000 Hartree-Fock + 0.0800 Slater + 0.7200 B88
 Correlation:  0.1900 VWN1RPA + 0.8100 LYP
 Using SG-1 standard quadrature grid
 using 14 threads for integral computing
 -------------------------------------------------------
 OpenMP Integral computing Module                
 Release: version 1.0, May 2013, Q-Chem Inc. Pittsburgh 
 -------------------------------------------------------
 -------------------------------------------------------
 OpenMP BLAS3 based DFT computing Module                
 Release: version 1.0, May 2013, Q-Chem Inc. Pittsburgh 
 -------------------------------------------------------
 A restricted SCF calculation will be
 performed using DIIS
 SCF converges when DIIS error is below 1.0e-08
 ---------------------------------------
  Cycle       Energy         DIIS error
 ---------------------------------------
    1   -1166.1562065884      3.12e-02  
    2   -1158.4912820747      2.88e-03  
    3   -1158.4872089676      2.95e-03  
    4   -1158.8690938930      6.00e-04  
    5   -1158.8808771036      3.35e-04  
    6   -1158.8860433570      9.56e-05  
    7   -1158.8864224382      3.27e-05  
    8   -1158.8864652217      1.26e-05  
    9   -1158.8864724310      2.15e-06  
   10   -1158.8864726106      9.04e-07  
   11   -1158.8864726460      2.85e-07  
   12   -1158.8864726494      1.05e-07  
   13   -1158.8864726499      3.67e-08  
   14   -1158.8864726499      1.89e-08  
   15   -1158.8864726500      6.63e-09  Convergence criterion met
 ---------------------------------------
 SCF time:   CPU 1130.12s  wall 81.00s 
 SCF   energy in the final basis set =    -1158.8864726500
 Total energy in the final basis set =    -1158.8864726500
 
 --------------------------------------------------------------
 
                    Orbital Energies (a.u.)
 --------------------------------------------------------------
 
 Alpha MOs
 -- Occupied --
-10.2124 -10.2043 -10.2039 -10.2008 -10.1998 -10.1974 -10.1966 -10.1958
-10.1938 -10.1904 -10.1897 -10.1886 -10.1878 -10.1872 -10.1867 -10.1846
-10.1839 -10.1836 -10.1836 -10.1830 -10.1828 -10.1828 -10.1820 -10.1819
-10.1810 -10.1796 -10.1785 -10.1767 -10.1722 -10.1633  -0.8902  -0.8806
 -0.8507  -0.8339  -0.8147  -0.7960  -0.7869  -0.7655  -0.7574  -0.7412
 -0.7323  -0.7121  -0.7061  -0.7022  -0.6761  -0.6668  -0.6577  -0.6299
 -0.6193  -0.6097  -0.5886  -0.5863  -0.5773  -0.5644  -0.5462  -0.5263
 -0.5166  -0.5053  -0.4897  -0.4838  -0.4745  -0.4713  -0.4661  -0.4534
 -0.4490  -0.4384  -0.4319  -0.4290  -0.4271  -0.4225  -0.4139  -0.4116
 -0.4061  -0.4058  -0.4017  -0.3948  -0.3941  -0.3835  -0.3800  -0.3756
 -0.3715  -0.3613  -0.3566  -0.3532  -0.3490  -0.3449  -0.3434  -0.3359
 -0.3319  -0.3277  -0.3245  -0.3213  -0.3210  -0.3090  -0.3058  -0.2951
 -0.2807  -0.2681  -0.2406  -0.2393  -0.2210  -0.2078  -0.1885
 -- Virtual --
 -0.0729  -0.0282  -0.0152  -0.0074   0.0123   0.0344   0.0505   0.0689
  0.0751   0.0895   0.0997   0.1035   0.1078   0.1131   0.1223   0.1248
  0.1326   0.1425   0.1456   0.1479   0.1540   0.1576   0.1614   0.1667
  0.1718   0.1725   0.1752   0.1813   0.1846   0.1886   0.1934   0.1979
  0.2025   0.2109   0.2142   0.2173   0.2215   0.2281   0.2301   0.2354
  0.2380   0.2476   0.2509   0.2560   0.2617   0.2657   0.2726   0.2789
  0.2889   0.2967   0.3064   0.3070   0.3187   0.3233   0.3256   0.3344
  0.3504   0.3633   0.3688   0.3881   0.3954   0.4057   0.4168   0.4327
  0.4649   0.4683   0.4720   0.4843   0.5005   0.5061   0.5098   0.5150
  0.5177   0.5223   0.5239   0.5351   0.5383   0.5391   0.5448   0.5522
  0.5552   0.5573   0.5634   0.5673   0.5708   0.5731   0.5767   0.5781
  0.5835   0.5879   0.5934   0.5960   0.5998   0.6034   0.6073   0.6080
  0.6100   0.6144   0.6160   0.6171   0.6224   0.6242   0.6271   0.6334
  0.6355   0.6404   0.6468   0.6546   0.6573   0.6609   0.6691   0.6719
  0.6735   0.6828   0.6866   0.6953   0.7049   0.7107   0.7201   0.7235
  0.7295   0.7444   0.7572   0.7807   0.7929   0.7971   0.8001   0.8042
  0.8054   0.8142   0.8169   0.8213   0.8276   0.8304   0.8313   0.8353
  0.8399   0.8453   0.8517   0.8526   0.8590   0.8649   0.8670   0.8739
  0.8791   0.8837   0.8858   0.8906   0.8956   0.8982   0.9089   0.9141
  0.9207   0.9264   0.9305   0.9368   0.9433   0.9471   0.9565   0.9578
  0.9640   0.9646   0.9683   0.9797   0.9930   0.9948   0.9980   1.0067
  1.0147   1.0186   1.0263   1.0310   1.0405   1.0537   1.0610   1.0677
  1.0797   1.0936   1.1059   1.1116   1.1199   1.1243   1.1349   1.1401
  1.1535   1.1634   1.1807   1.1833   1.1921   1.2081   1.2202   1.2285
  1.2383   1.2538   1.2617   1.2810   1.2841   1.2883   1.2998   1.3026
  1.3142   1.3226   1.3383   1.3478   1.3564   1.3641   1.3729   1.3739
  1.3795   1.3925   1.3951   1.4083   1.4126   1.4190   1.4236   1.4282
  1.4338   1.4407   1.4416   1.4496   1.4618   1.4744   1.4813   1.4919
  1.5073   1.5097   1.5280   1.5385   1.5639   1.5718   1.5764   1.5980
  1.6162   1.6247   1.6388   1.6617   1.6931   1.6986   1.7192   1.7375
  1.7389   1.7485   1.7611   1.7684   1.7714   1.7791   1.7889   1.7974
  1.8018   1.8035   1.8114   1.8141   1.8251   1.8391   1.8483   1.8601
  1.8615   1.8667   1.8717   1.8774   1.8844   1.8861   1.8897   1.8972
  1.9050   1.9099   1.9108   1.9254   1.9310   1.9397   1.9444   1.9501
  1.9519   1.9585   1.9630   1.9695   1.9819   1.9859   1.9917   1.9990
  2.0002   2.0055   2.0130   2.0192   2.0256   2.0331   2.0377   2.0419
  2.0498   2.0631   2.0692   2.0781   2.0813   2.0920   2.0954   2.0990
  2.1104   2.1142   2.1212   2.1314   2.1401   2.1442   2.1555   2.1640
  2.1654   2.1825   2.1945   2.2017   2.2117   2.2191   2.2264   2.2335
  2.2389   2.2549   2.2629   2.2704   2.2844   2.2879   2.2934   2.3005
  2.3154   2.3199   2.3263   2.3394   2.3416   2.3538   2.3604   2.3702
  2.3809   2.3835   2.3877   2.3947   2.4007   2.4016   2.4070   2.4110
  2.4152   2.4253   2.4430   2.4498   2.4559   2.4619   2.4643   2.4732
  2.4806   2.4832   2.4901   2.4953   2.5013   2.5116   2.5155   2.5208
  2.5278   2.5384   2.5449   2.5496   2.5620   2.5674   2.5786   2.5851
  2.5927   2.5953   2.6026   2.6136   2.6191   2.6218   2.6340   2.6389
  2.6545   2.6617   2.6647   2.6761   2.6822   2.6848   2.6929   2.7015
  2.7063   2.7184   2.7278   2.7355   2.7424   2.7460   2.7592   2.7616
  2.7632   2.7688   2.7744   2.7851   2.7887   2.8175   2.8241   2.8294
  2.8449   2.8542   2.8582   2.8725   2.8820   2.8921   2.9187   2.9250
  2.9284   2.9333   2.9459   2.9667   2.9792   2.9967   3.0102   3.0448
  3.0507   3.0967   3.1313   3.1428   3.1531   3.1910   3.1983   3.2061
  3.2233   3.2279   3.2391   3.2534   3.2587   3.2644   3.2735   3.2826
  3.3019   3.3137   3.3446   3.3503   3.3571   3.3924   3.3927   3.4142
  3.4176   3.4251   3.4310   3.4342   3.4506   3.4806   3.4945   3.5094
  3.5166   3.5338   3.5420   3.7432   3.8292   3.8715   3.9120   4.1259
  4.1332   4.1429   4.1462   4.1515   4.1593   4.1698   4.2005   4.2129
  4.2142   4.2381   4.2584   4.3011   4.3242   4.3993   4.4201   4.4334
  4.4658   4.5286   4.5350   4.5539   4.5803   4.5877   4.6165   4.6815
  4.7583   4.8045   4.8837   4.9335   4.9545
 --------------------------------------------------------------
 
          Ground-State Mulliken Net Atomic Charges

     Atom                 Charge (a.u.)
  ----------------------------------------
      1 C                     0.032986
      2 C                     0.069221
      3 C                    -0.020454
      4 C                     0.035873
      5 C                     0.032979
      6 C                    -0.116130
      7 C                    -0.098434
      8 C                    -0.091120
      9 C                    -0.138677
     10 H                     0.081842
     11 H                     0.080533
     12 H                     0.079750
     13 H                     0.078478
     14 C                    -0.118270
     15 C                    -0.133329
     16 C                    -0.100028
     17 C                    -0.090749
     18 H                     0.099685
     19 H                     0.082197
     20 H                     0.080792
     21 H                     0.079902
     22 C                    -0.028353
     23 C                    -0.118128
     24 C                     0.065917
     25 C                    -0.261180
     26 C                     0.060413
     27 H                     0.117624
     28 H                     0.112238
     29 C                    -0.128048
     30 C                    -0.133886
     31 C                     0.049619
     32 C                     0.119417
     33 H                     0.080898
     34 H                     0.088664
     35 C                    -0.142208
     36 C                    -0.136674
     37 C                    -0.088956
     38 C                    -0.089039
     39 H                     0.113973
     40 H                     0.090370
     41 H                     0.085989
     42 H                     0.083329
     43 H                     0.099530
     44 C                     0.054987
     45 C                    -0.299302
     46 H                     0.092741
     47 H                     0.100108
     48 H                     0.092106
     49 C                    -0.313401
     50 C                    -0.295672
     51 H                     0.092172
     52 H                     0.097876
     53 H                     0.112748
     54 H                     0.095146
     55 H                     0.116464
     56 H                     0.085470
  ----------------------------------------
  Sum of atomic charges =    -0.000000

 -----------------------------------------------------------------
                    Cartesian Multipole Moments
 -----------------------------------------------------------------
    Charge (ESU x 10^10)
                -0.0000
    Dipole Moment (Debye)
         X       1.1150      Y      -1.2974      Z       0.0594
       Tot       1.7117
    Quadrupole Moments (Debye-Ang)
        XX    -159.0099     XY      -4.1827     YY    -155.3064
        XZ       1.1496     YZ      -3.8778     ZZ    -178.0294
    Octopole Moments (Debye-Ang^2)
       XXX    -345.2823    XXY     314.4004    XYY    -111.7763
       YYY     958.8047    XXZ     -81.9104    XYZ     -14.4022
       YYZ     -42.7851    XZZ    -135.2533    YZZ     351.7504
       ZZZ    -176.1637
    Hexadecapole Moments (Debye-Ang^3)
      XXXX   -7641.3569   XXXY     908.4236   XXYY   -2724.9713
      XYYY     944.5585   YYYY   -8779.9435   XXXZ     252.6006
      XXYZ     301.3780   XYYZ     180.5098   YYYZ     915.9047
      XXZZ   -1796.7727   XYZZ     417.3704   YYZZ   -1916.6985
      XZZZ     270.8671   YZZZ     929.8476   ZZZZ   -2143.0822
 -----------------------------------------------------------------
 Calculating analytic gradient of the SCF energy
 Gradient of SCF Energy
            1           2           3           4           5           6
    1   0.0134896  -0.0100556   0.0029574  -0.0228121   0.0144878   0.0044386
    2  -0.0179381   0.0275284  -0.0096288   0.0171654  -0.0202172   0.0108747
    3   0.0029165   0.0019548  -0.0004670  -0.0043194   0.0024717   0.0025610
            7           8           9          10          11          12
    1  -0.0048719  -0.0089909   0.0090141  -0.0000302   0.0027202   0.0012617
    2  -0.0013093  -0.0044449  -0.0125402  -0.0027155  -0.0004985   0.0021433
    3  -0.0015603  -0.0011808   0.0049445   0.0001822   0.0003092   0.0004360
           13          14          15          16          17          18
    1  -0.0047435  -0.0107782   0.0033594   0.0024600   0.0079638  -0.0013331
    2   0.0073993  -0.0005663  -0.0088030   0.0051815   0.0064061   0.0019618
    3  -0.0011683  -0.0043322  -0.0018785   0.0010978   0.0013731  -0.0000230
           19          20          21          22          23          24
    1  -0.0022080   0.0025463  -0.0004779  -0.0097665  -0.0032321   0.0194312
    2  -0.0003973  -0.0010512  -0.0028041  -0.0008706   0.0046045  -0.0034792
    3  -0.0009810   0.0005608   0.0001765   0.0004130  -0.0144108  -0.0019253
           25          26          27          28          29          30
    1   0.0045230  -0.0037547   0.0012940   0.0079525  -0.0216217   0.0115311
    2   0.0131888   0.0032734  -0.0017846  -0.0016201  -0.0070699   0.0254348
    3   0.0066353   0.0007048  -0.0085863   0.0052760   0.0040993  -0.0106703
           31          32          33          34          35          36
    1   0.0096394  -0.0050261   0.0003619  -0.0027696  -0.0002376  -0.0135432
    2  -0.0092230  -0.0015461   0.0023364  -0.0027727  -0.0222749  -0.0112714
    3   0.0043721  -0.0011410  -0.0018369   0.0003638   0.0133881   0.0118269
           37          38          39          40          41          42
    1   0.0162072  -0.0143336   0.0063967   0.0020351  -0.0004615  -0.0024756
    2   0.0074454   0.0117001   0.0024322  -0.0012278   0.0034487  -0.0013908
    3  -0.0050658  -0.0058280  -0.0020448   0.0014419  -0.0021327   0.0005177
           43          44          45          46          47          48
    1   0.0004513   0.0050478   0.0012884  -0.0060714  -0.0028637   0.0035252
    2  -0.0054905  -0.0001510   0.0073105  -0.0024052  -0.0021703  -0.0054502
    3  -0.0057941  -0.0092770   0.0010733  -0.0068162   0.0106591   0.0024976
           49          50          51          52          53          54
    1  -0.0067648   0.0071577   0.0060568  -0.0020527   0.0025835  -0.0071366
    2  -0.0031062  -0.0041764  -0.0046306   0.0004425   0.0097435  -0.0078235
    3  -0.0013054  -0.0058860   0.0012171   0.0106381  -0.0035225  -0.0034605
           55          56
    1   0.0044363  -0.0062051
    2   0.0093173   0.0035108
    3   0.0038249   0.0076812
 Max gradient component =       2.753E-02
 RMS gradient           =       7.732E-03
 Gradient time:  CPU 270.34 s  wall 21.75 s
 Geometry Optimization Parameters
   NAtoms,    NIC,     NZ,  NCons,   NDum,   NFix, NCnnct, MaxDiis
       56     450       0       0       0       0       0       0


** GEOMETRY OPTIMIZATION IN DELOCALIZED INTERNAL COORDINATES **
   Searching for a Minimum

   Optimization Cycle:   1

                       Coordinates (Angstroms)
     ATOM                X               Y               Z
      1  C        -1.9018200000   -0.3746900000   -0.1782500000
      2  C        -1.5248300000   -1.7113100000   -0.1364900000
      3  C        -0.0576100000   -1.7936500000    0.1705300000
      4  C         0.3369800000   -0.3634400000    0.3732000000
      5  C        -0.7586000000    0.4529300000    0.1448400000
      6  C        -3.2051000000    0.0250000000   -0.4803100000
      7  C        -4.1533200000   -0.9602700000   -0.7761100000
      8  C        -3.7852200000   -2.3144800000   -0.7786500000
      9  C        -2.4698500000   -2.6972400000   -0.4721300000
     10  H        -3.4819000000    1.0707900000   -0.4933500000
     11  H        -5.1694700000   -0.6763200000   -1.0171400000
     12  H        -4.5200500000   -3.0690200000   -1.0281600000
     13  H        -2.2329600000   -3.7414600000   -0.5145700000
     14  C        -0.6983400000    1.8410800000    0.2868300000
     15  C         1.5210600000    0.2076600000    0.8736600000
     16  C         0.5052300000    2.4162200000    0.7125800000
     17  C         1.6060400000    1.6006800000    1.0203400000
     18  H         2.3662800000   -0.3978100000    1.1599600000
     19  H         2.5207200000    2.0480200000    1.3872100000
     20  H        -1.5632900000    2.4625100000    0.0968600000
     21  H         0.5762500000    3.4888300000    0.8379400000
     22  C         0.7311500000   -2.9141100000    0.3079300000
     23  C         0.2020800000   -4.2732400000    0.8348300000
     24  C         2.2217600000   -3.0381800000    0.1348200000
     25  C         1.4604800000   -5.1849400000    0.8463400000
     26  C         2.6020300000   -4.2981800000    0.5537100000
     27  H         1.4141300000   -5.9245000000    0.0172200000
     28  H         1.6524000000   -5.7485000000    1.7741000000
     29  C         3.9265000000   -4.7293800000    0.5663400000
     30  C         4.9256800000   -3.8792600000    0.1115400000
     31  C         3.2183700000   -2.2259200000   -0.5082800000
     32  C         4.5843000000   -2.6479600000   -0.4632600000
     33  H         4.1783500000   -5.7242300000    0.9118500000
     34  H         5.9542000000   -4.2205800000    0.1264700000
     35  C         5.5948700000   -1.8653100000   -1.0449000000
     36  C         2.9295400000   -1.0683000000   -1.2623100000
     37  C         3.9434300000   -0.3071500000   -1.8478900000
     38  C         5.2739800000   -0.6920600000   -1.7213900000
     39  H         1.9239000000   -0.7426800000   -1.4401200000
     40  H         3.6927200000    0.5827800000   -2.4110300000
     41  H         6.6321500000   -2.1764700000   -1.0012100000
     42  H         6.0551700000   -0.0996300000   -2.1800800000
     43  H        -0.5424400000   -4.7320300000    0.1639800000
     44  C        -0.3862200000   -4.2108300000    2.3366600000
     45  C        -0.8457900000   -5.6274200000    2.7876900000
     46  H        -1.6271200000   -6.0149200000    2.0986400000
     47  H        -1.2781000000   -5.5955000000    3.8117700000
     48  H        -0.0372800000   -6.3787400000    2.8316600000
     49  C         0.6678100000   -3.6658700000    3.3395300000
     50  C        -1.6373900000   -3.3193700000    2.5024100000
     51  H         1.5819800000   -4.2877200000    3.3909900000
     52  H         0.2516500000   -3.6332800000    4.3699200000
     53  H         0.9719300000   -2.6335100000    3.0636100000
     54  H        -2.4719800000   -3.6763400000    1.8702600000
     55  H        -1.4201900000   -2.2512500000    2.3268000000
     56  H        -2.0101100000   -3.3602400000    3.5496300000
   Point Group: c1    Number of degrees of freedom:   162


   Energy is  -1158.886472650


 Attempting to generate delocalized internal coordinates
 Initial Hessian constructed with Jon Baker's OPTIMIZE code

162 Hessian modes will be used to form the next step
  Hessian Eigenvalues:
     0.002000    0.002000    0.002087    0.003201    0.003846    0.009958
     0.012199    0.015603    0.017026    0.017187    0.017780    0.018984
     0.018985    0.019612    0.020228    0.020412    0.020780    0.020960
     0.021708    0.021721    0.021831    0.021847    0.021916    0.021918
     0.021935    0.021966    0.022155    0.022231    0.022260    0.022385
     0.022466    0.022612    0.022632    0.022725    0.023103    0.023137
     0.023220    0.023309    0.023572    0.023647    0.025434    0.037774
     0.041282    0.043294    0.044107    0.046133    0.050539    0.051416
     0.051922    0.053554    0.054476    0.054538    0.056537    0.057692
     0.059594    0.089046    0.092812    0.133550    0.138473    0.148372
     0.159255    0.159862    0.159882    0.159928    0.159940    0.159956
     0.159978    0.159980    0.159981    0.159990    0.159992    0.159994
     0.159995    0.159997    0.160000    0.160000    0.160000    0.160000
     0.160000    0.160000    0.160000    0.160000    0.160000    0.193836
     0.219932    0.219958    0.219986    0.224025    0.225721    0.225852
     0.226874    0.228433    0.238073    0.242308    0.242502    0.244164
     0.244506    0.246643    0.247621    0.247802    0.248980    0.249407
     0.265875    0.271413    0.272191    0.273464    0.280644    0.309618
     0.312682    0.316520    0.323554    0.323842    0.323895    0.324170
     0.324422    0.324912    0.329389    0.330104    0.331803    0.332397
     0.334238    0.334403    0.341827    0.355360    0.355416    0.356539
     0.356856    0.357038    0.357075    0.357194    0.357228    0.357246
     0.357681    0.357716    0.361877    0.368613    0.369918    0.370294
     0.373763    0.385155    0.395320    0.410303    0.412197    0.412706
     0.413365    0.424976    0.435336    0.445425    0.448182    0.448899
     0.452956    0.454144    0.454239    0.456306    0.457413    0.457906
     0.457946    0.459175    0.468781    0.468957    0.470993    0.496330

 Minimum search - taking simple RFO step
 Searching for Lamda that Minimizes Along All modes
 Value Taken    Lamda =  -0.03119081
 Calculated Step too Large.  Step scaled by  0.511866
 Step Taken.  Stepsize is  0.300000

                             Maximum     Tolerance    Cnvgd?
         Gradient           0.023587      0.000300      NO
         Displacement       0.188133      0.001200      NO
         Energy change     *********      0.000001      NO


 New Cartesian Coordinates Obtained by Inverse Iteration

 Displacement from previous Coordinates is:  2.699209
 ----------------------------------------------------------------
             Standard Nuclear Orientation (Angstroms)
    I     Atom           X                Y                Z
 ----------------------------------------------------------------
    1      C      -1.8955268024    -0.3464267076    -0.2524405583
    2      C      -1.4909706667    -1.6861663078    -0.2151408811
    3      C      -0.0555021121    -1.7544784644     0.2054646933
    4      C       0.3046931159    -0.3284153713     0.4796955832
    5      C      -0.7930569823     0.4900225718     0.1950997508
    6      C      -3.1781184132     0.0292270740    -0.6581795095
    7      C      -4.0687309634    -0.9653207546    -1.0674924842
    8      C      -3.6648565863    -2.3080306590    -1.0825746914
    9      C      -2.3776843082    -2.6738203963    -0.6713913010
   10      H      -3.4790151036     1.0702899736    -0.6657037390
   11      H      -5.0686143672    -0.6976141776    -1.3899991109
   12      H      -4.3546437142    -3.0718543785    -1.4232228871
   13      H      -2.1043426844    -3.7143090492    -0.7251961161
   14      C      -0.7603643828     1.8715352307     0.3980307776
   15      C       1.4287317179     0.2403003946     1.1015578461
   16      C       0.3934029595     2.4394074184     0.9441055939
   17      C       1.4734887825     1.6233819779     1.3112131501
   18      H       2.2569242764    -0.3661909899     1.4368470310
   19      H       2.3480992170     2.0656261830     1.7742308545
   20      H      -1.6172802002     2.4918874141     0.1626627181
   21      H       0.4401271439     3.5085687218     1.1178193312
   22      C       0.7242276380    -2.8815117699     0.3547565519
   23      C       0.1826339218    -4.2277726193     0.9099039980
   24      C       2.1987770111    -3.0362495263     0.1465712140
   25      C       1.4123036394    -5.1745476890     0.8807166520
   26      C       2.5741488671    -4.3061564900     0.5637983749
   27      H       1.3199357241    -5.9175474896     0.0663382615
   28      H       1.5904806360    -5.7402294987     1.8040655052
   29      C       3.9002168635    -4.7542371564     0.5507779049
   30      C       4.8917055027    -3.9244395765     0.0606392775
   31      C       3.1840006251    -2.2518915061    -0.5569177978
   32      C       4.5506113251    -2.6936668496    -0.5386443740
   33      H       4.1475440871    -5.7489009487     0.9057480392
   34      H       5.9204721138    -4.2691544129     0.0538539663
   35      C       5.5520510410    -1.9334387014    -1.1785140807
   36      C       2.8862673011    -1.1210334032    -1.3504089679
   37      C       3.8866462634    -0.3982991523    -1.9925470819
   38      C       5.2254278228    -0.7871055918    -1.8864376469
   39      H       1.8712461605    -0.8021057483    -1.5057179810
   40      H       3.6217164891     0.4699805372    -2.5852104474
   41      H       6.5855466592    -2.2620705034    -1.1491095921
   42      H       6.0006402001    -0.2187234477    -2.3882402064
   43      H      -0.6026669930    -4.6572580749     0.2737403721
   44      C      -0.3370549904    -4.1737710746     2.4291402887
   45      C      -0.7919006804    -5.5930754003     2.8579132349
   46      H      -1.6081071238    -5.9522735452     2.2064108585
   47      H      -1.1693661151    -5.5790898131     3.8950190496
   48      H       0.0082858865    -6.3472582566     2.8349545257
   49      C       0.7807117215    -3.6775303982     3.3796647637
   50      C      -1.5581481856    -3.2635666974     2.6786759036
   51      H       1.6772889162    -4.3165168744     3.3653999233
   52      H       0.4181094859    -3.6637591029     4.4219258901
   53      H       1.0916486697    -2.6522325785     3.1178347634
   54      H      -2.4291922574    -3.5768346466     2.0867426637
   55      H      -1.3367232989    -2.2023890662     2.5097398330
   56      H      -1.8621048535    -3.3337526308     3.7390503090
 ----------------------------------------------------------------
 Nuclear Repulsion Energy =  2796.1677309450 hartrees
 There are      103 alpha and      103 beta electrons
 Applying Cartesian multipole field
    Component          Value
    ---------          -----
     (2,0,0)        1.00000E-12
     (0,2,0)        2.00000E-12
     (0,0,2)       -3.00000E-11
 Nucleus-field energy     =    -0.0000000293 hartrees
 Requested basis set is 6-31G(d,p)
 There are 198 shells and 580 basis functions
 A cutoff of  1.0D-11 yielded  10577 shell pairs
 There are     96635 function pairs
 Smallest overlap matrix eigenvalue = 2.44E-04
 Guess MOs from SCF MO coefficient file

 -----------------------------------------------------------------------
  General SCF calculation program by
  Eric Jon Sundstrom, Paul Horn, Yuezhi Mao, Dmitri Zuev, Alec White,
  David Stuck, Shaama M.S., Shane Yost, Joonho Lee, David Small,
  Daniel Levine, Susi Lehtola, Hugh Burton, Evgeny Epifanovsky
 -----------------------------------------------------------------------
 Exchange:     0.2000 Hartree-Fock + 0.0800 Slater + 0.7200 B88
 Correlation:  0.1900 VWN1RPA + 0.8100 LYP
 Using SG-1 standard quadrature grid
 using 14 threads for integral computing
 -------------------------------------------------------
 OpenMP Integral computing Module                
 Release: version 1.0, May 2013, Q-Chem Inc. Pittsburgh 
 -------------------------------------------------------
 -------------------------------------------------------
 OpenMP BLAS3 based DFT computing Module                
 Release: version 1.0, May 2013, Q-Chem Inc. Pittsburgh 
 -------------------------------------------------------
 A restricted SCF calculation will be
 performed using DIIS
 SCF converges when DIIS error is below 1.0e-08
 ---------------------------------------
  Cycle       Energy         DIIS error
 ---------------------------------------
    1   -1158.8492116275      6.86e-04  
    2   -1158.8934395393      1.03e-04  
    3   -1158.8931557356      1.54e-04  
    4   -1158.8942652978      3.28e-05  
    5   -1158.8943077898      1.59e-05  
    6   -1158.8943181128      6.28e-06  
    7   -1158.8943199045      1.74e-06  
    8   -1158.8943200390      4.98e-07  
    9   -1158.8943200491      1.36e-07  
   10   -1158.8943200497      7.96e-08  
   11   -1158.8943200499      2.59e-08  
   12   -1158.8943200500      1.05e-08  
   13   -1158.8943200500      1.82e-09  Convergence criterion met
 ---------------------------------------
 SCF time:   CPU 1001.19s  wall 72.00s 
 SCF   energy in the final basis set =    -1158.8943200500
 Total energy in the final basis set =    -1158.8943200500
 
 --------------------------------------------------------------
 
                    Orbital Energies (a.u.)
 --------------------------------------------------------------
 
 Alpha MOs
 -- Occupied --
-10.2127 -10.2033 -10.2025 -10.2021 -10.2009 -10.1980 -10.1975 -10.1964
-10.1959 -10.1907 -10.1906 -10.1884 -10.1878 -10.1877 -10.1873 -10.1860
-10.1845 -10.1845 -10.1835 -10.1830 -10.1829 -10.1826 -10.1826 -10.1823
-10.1811 -10.1810 -10.1804 -10.1747 -10.1703 -10.1636  -0.8882  -0.8785
 -0.8498  -0.8339  -0.8151  -0.7973  -0.7862  -0.7637  -0.7577  -0.7399
 -0.7329  -0.7124  -0.7053  -0.7024  -0.6790  -0.6696  -0.6576  -0.6279
 -0.6189  -0.6095  -0.5880  -0.5862  -0.5768  -0.5645  -0.5457  -0.5264
 -0.5164  -0.5055  -0.4885  -0.4841  -0.4753  -0.4726  -0.4660  -0.4532
 -0.4482  -0.4365  -0.4322  -0.4306  -0.4275  -0.4223  -0.4142  -0.4111
 -0.4057  -0.4054  -0.4012  -0.3954  -0.3940  -0.3831  -0.3801  -0.3764
 -0.3721  -0.3618  -0.3578  -0.3540  -0.3492  -0.3453  -0.3437  -0.3362
 -0.3325  -0.3286  -0.3245  -0.3215  -0.3204  -0.3102  -0.3072  -0.2939
 -0.2814  -0.2684  -0.2413  -0.2391  -0.2245  -0.2071  -0.1849
 -- Virtual --
 -0.0755  -0.0271  -0.0169  -0.0079   0.0129   0.0348   0.0496   0.0662
  0.0767   0.0895   0.0997   0.1031   0.1071   0.1119   0.1222   0.1246
  0.1341   0.1410   0.1458   0.1498   0.1531   0.1573   0.1626   0.1669
  0.1707   0.1719   0.1748   0.1792   0.1850   0.1907   0.1934   0.2000
  0.2016   0.2080   0.2130   0.2157   0.2216   0.2300   0.2318   0.2350
  0.2389   0.2505   0.2516   0.2552   0.2610   0.2639   0.2724   0.2798
  0.2902   0.2978   0.3073   0.3091   0.3189   0.3218   0.3251   0.3350
  0.3514   0.3613   0.3673   0.3842   0.3944   0.4050   0.4133   0.4317
  0.4603   0.4631   0.4719   0.4837   0.4907   0.5022   0.5055   0.5098
  0.5141   0.5214   0.5253   0.5308   0.5386   0.5403   0.5465   0.5515
  0.5559   0.5574   0.5616   0.5659   0.5700   0.5736   0.5741   0.5781
  0.5811   0.5887   0.5935   0.5940   0.5995   0.6030   0.6069   0.6084
  0.6101   0.6138   0.6158   0.6179   0.6211   0.6237   0.6252   0.6301
  0.6309   0.6395   0.6409   0.6522   0.6538   0.6550   0.6639   0.6678
  0.6695   0.6791   0.6841   0.6945   0.7028   0.7064   0.7108   0.7236
  0.7311   0.7443   0.7556   0.7771   0.7836   0.7949   0.8002   0.8032
  0.8060   0.8107   0.8162   0.8188   0.8236   0.8288   0.8297   0.8334
  0.8402   0.8407   0.8470   0.8511   0.8594   0.8612   0.8684   0.8739
  0.8787   0.8835   0.8852   0.8927   0.8965   0.9034   0.9051   0.9086
  0.9204   0.9206   0.9267   0.9368   0.9397   0.9471   0.9482   0.9580
  0.9645   0.9659   0.9731   0.9804   0.9823   0.9927   0.9947   1.0029
  1.0081   1.0107   1.0187   1.0249   1.0292   1.0473   1.0584   1.0647
  1.0767   1.0801   1.1002   1.1051   1.1101   1.1152   1.1240   1.1384
  1.1461   1.1573   1.1668   1.1724   1.1884   1.2006   1.2161   1.2232
  1.2321   1.2489   1.2552   1.2687   1.2801   1.2841   1.2920   1.3031
  1.3129   1.3215   1.3316   1.3398   1.3499   1.3585   1.3591   1.3696
  1.3714   1.3838   1.3961   1.4093   1.4119   1.4156   1.4196   1.4205
  1.4288   1.4316   1.4386   1.4432   1.4544   1.4667   1.4776   1.4810
  1.5033   1.5096   1.5173   1.5433   1.5586   1.5690   1.5797   1.5887
  1.6118   1.6255   1.6336   1.6587   1.6843   1.7030   1.7192   1.7291
  1.7391   1.7452   1.7506   1.7641   1.7696   1.7761   1.7856   1.7927
  1.7941   1.8028   1.8088   1.8120   1.8224   1.8380   1.8495   1.8538
  1.8627   1.8657   1.8700   1.8748   1.8818   1.8873   1.8884   1.8969
  1.9030   1.9053   1.9105   1.9195   1.9242   1.9376   1.9397   1.9429
  1.9457   1.9520   1.9594   1.9690   1.9727   1.9814   1.9881   1.9943
  1.9984   2.0041   2.0092   2.0186   2.0239   2.0274   2.0360   2.0419
  2.0495   2.0591   2.0676   2.0706   2.0736   2.0878   2.0934   2.0988
  2.1141   2.1188   2.1281   2.1335   2.1383   2.1448   2.1539   2.1567
  2.1619   2.1784   2.1875   2.1974   2.2135   2.2146   2.2224   2.2279
  2.2374   2.2479   2.2596   2.2719   2.2817   2.2886   2.2925   2.2976
  2.3124   2.3175   2.3229   2.3402   2.3426   2.3534   2.3548   2.3670
  2.3776   2.3811   2.3852   2.3915   2.3926   2.3964   2.4052   2.4092
  2.4132   2.4262   2.4392   2.4431   2.4545   2.4606   2.4639   2.4722
  2.4755   2.4788   2.4871   2.4898   2.5010   2.5075   2.5157   2.5222
  2.5248   2.5393   2.5446   2.5460   2.5596   2.5665   2.5748   2.5815
  2.5908   2.5934   2.6036   2.6065   2.6124   2.6190   2.6307   2.6351
  2.6519   2.6557   2.6617   2.6758   2.6786   2.6842   2.6908   2.6982
  2.7044   2.7203   2.7241   2.7341   2.7420   2.7475   2.7583   2.7599
  2.7640   2.7665   2.7719   2.7797   2.7860   2.8194   2.8230   2.8247
  2.8473   2.8669   2.8722   2.8742   2.8861   2.8885   2.9104   2.9207
  2.9296   2.9337   2.9451   2.9695   2.9828   2.9881   3.0017   3.0412
  3.0458   3.0947   3.1261   3.1427   3.1673   3.1849   3.1926   3.2097
  3.2173   3.2286   3.2481   3.2509   3.2545   3.2603   3.2691   3.2732
  3.3006   3.3148   3.3388   3.3458   3.3525   3.3848   3.4037   3.4059
  3.4281   3.4348   3.4379   3.4404   3.4500   3.4812   3.4950   3.5017
  3.5247   3.5268   3.5510   3.7289   3.8260   3.8654   3.9070   4.1154
  4.1280   4.1407   4.1453   4.1494   4.1564   4.1689   4.1877   4.1972
  4.2079   4.2216   4.2521   4.2989   4.3262   4.3961   4.4124   4.4298
  4.4552   4.5251   4.5363   4.5512   4.5749   4.5820   4.6207   4.6817
  4.7521   4.8043   4.8723   4.9250   4.9422
 --------------------------------------------------------------
 
          Ground-State Mulliken Net Atomic Charges

     Atom                 Charge (a.u.)
  ----------------------------------------
      1 C                     0.029399
      2 C                     0.074984
      3 C                    -0.031397
      4 C                     0.041362
      5 C                     0.030385
      6 C                    -0.116071
      7 C                    -0.098512
      8 C                    -0.090682
      9 C                    -0.137503
     10 H                     0.081730
     11 H                     0.080807
     12 H                     0.079429
     13 H                     0.077292
     14 C                    -0.117419
     15 C                    -0.129299
     16 C                    -0.099165
     17 C                    -0.090043
     18 H                     0.094234
     19 H                     0.081730
     20 H                     0.081179
     21 H                     0.080446
     22 C                    -0.035092
     23 C                    -0.110538
     24 C                     0.062724
     25 C                    -0.259241
     26 C                     0.056114
     27 H                     0.117346
     28 H                     0.111628
     29 C                    -0.126130
     30 C                    -0.130044
     31 C                     0.053388
     32 C                     0.110666
     33 H                     0.082087
     34 H                     0.088331
     35 C                    -0.139200
     36 C                    -0.124774
     37 C                    -0.092490
     38 C                    -0.088018
     39 H                     0.108749
     40 H                     0.090209
     41 H                     0.085408
     42 H                     0.084574
     43 H                     0.097853
     44 C                     0.050814
     45 C                    -0.299738
     46 H                     0.095451
     47 H                     0.099989
     48 H                     0.093247
     49 C                    -0.314082
     50 C                    -0.301028
     51 H                     0.094074
     52 H                     0.097717
     53 H                     0.113227
     54 H                     0.098519
     55 H                     0.116022
     56 H                     0.089356
  ----------------------------------------
  Sum of atomic charges =    -0.000000

 -----------------------------------------------------------------
                    Cartesian Multipole Moments
 -----------------------------------------------------------------
    Charge (ESU x 10^10)
                -0.0000
    Dipole Moment (Debye)
         X       1.0756      Y      -1.3684      Z       0.0913
       Tot       1.7429
    Quadrupole Moments (Debye-Ang)
        XX    -159.9477     XY      -4.5205     YY    -155.1247
        XZ       1.5263     YZ      -3.8441     ZZ    -176.6956
    Octopole Moments (Debye-Ang^2)
       XXX    -342.8148    XXY     313.9449    XYY    -111.8327
       YYY     956.1195    XXZ     -85.8791    XYZ     -13.8670
       YYZ     -38.9874    XZZ    -133.0268    YZZ     350.8073
       ZZZ    -171.9580
    Hexadecapole Moments (Debye-Ang^3)
      XXXX   -7459.9882   XXXY     962.8724   XXYY   -2691.9548
      XYYY    1013.2652   YYYY   -8747.9302   XXXZ     215.3607
      XXYZ     297.4635   XYYZ     174.0164   YYYZ     863.6948
      XXZZ   -1777.5901   XYZZ     449.6401   YYZZ   -1952.3890
      XZZZ     238.2604   YZZZ     876.3841   ZZZZ   -2421.0574
 -----------------------------------------------------------------
 Calculating analytic gradient of the SCF energy
 Gradient of SCF Energy
            1           2           3           4           5           6
    1   0.0079842  -0.0074392   0.0056145  -0.0152134   0.0102968   0.0008685
    2  -0.0127704   0.0180590  -0.0103579   0.0119923  -0.0116509   0.0067732
    3   0.0011452  -0.0024058   0.0004875  -0.0008003   0.0028806   0.0020656
            7           8           9          10          11          12
    1  -0.0021633  -0.0044664   0.0055040  -0.0002103   0.0014009   0.0006818
    2  -0.0003394  -0.0025489  -0.0056781  -0.0016791  -0.0001475   0.0012196
    3  -0.0007542  -0.0010372   0.0011976   0.0000951   0.0001745   0.0002742
           13          14          15          16          17          18
    1  -0.0030192  -0.0062587   0.0015774   0.0009644   0.0039526  -0.0026844
    2   0.0040902   0.0010874  -0.0036741   0.0023660   0.0034990   0.0030299
    3  -0.0012946  -0.0034301   0.0018858   0.0003412   0.0011610   0.0013596
           19          20          21          22          23          24
    1  -0.0012348   0.0015785  -0.0003699  -0.0105898  -0.0043322   0.0143122
    2  -0.0002861  -0.0003822  -0.0014049   0.0026220   0.0045028  -0.0011754
    3  -0.0006680   0.0004230   0.0001107  -0.0004742  -0.0100693  -0.0027741
           25          26          27          28          29          30
    1   0.0014940  -0.0026854   0.0001545   0.0047325  -0.0121014   0.0074399
    2   0.0069714   0.0036165  -0.0012274  -0.0010635  -0.0047819   0.0146466
    3   0.0071706   0.0010968  -0.0048513   0.0039228   0.0030451  -0.0058864
           31          32          33          34          35          36
    1   0.0051460  -0.0030707   0.0005774  -0.0018903   0.0009220  -0.0077529
    2  -0.0067316  -0.0005957   0.0010905  -0.0023776  -0.0133977  -0.0090755
    3   0.0013018  -0.0012986  -0.0013222   0.0001963   0.0088861   0.0049791
           37          38          39          40          41          42
    1   0.0104874  -0.0087830   0.0055934   0.0010323  -0.0002615  -0.0010219
    2   0.0042373   0.0075227   0.0005727  -0.0004658   0.0024111  -0.0008716
    3  -0.0038841  -0.0036352  -0.0034587   0.0010620  -0.0017207   0.0001597
           43          44          45          46          47          48
    1   0.0011069   0.0036003   0.0009498  -0.0034396  -0.0009155   0.0025157
    2  -0.0036463  -0.0018283   0.0051976  -0.0013460  -0.0014225  -0.0033895
    3  -0.0046679  -0.0055071   0.0002224  -0.0035759   0.0057109   0.0012636
           49          50          51          52          53          54
    1  -0.0043565   0.0033577   0.0033981  -0.0006788   0.0015579  -0.0031979
    2  -0.0014071  -0.0030304  -0.0030069   0.0000118   0.0051520  -0.0044976
    3  -0.0009659  -0.0022186   0.0001628   0.0055999  -0.0019162   0.0009752
           55          56
    1   0.0023042  -0.0029689
    2   0.0036525   0.0019337
    3   0.0042521   0.0050079
 Max gradient component =       1.806E-02
 RMS gradient           =       4.965E-03
 Gradient time:  CPU 265.12 s  wall 21.85 s
 Geometry Optimization Parameters
   NAtoms,    NIC,     NZ,  NCons,   NDum,   NFix, NCnnct, MaxDiis
       56     450       0       0       0       0       0       0

 Cartesian Hessian Update
 Hessian updated using BFGS update


** GEOMETRY OPTIMIZATION IN DELOCALIZED INTERNAL COORDINATES **
   Searching for a Minimum

   Optimization Cycle:   2

                       Coordinates (Angstroms)
     ATOM                X               Y               Z
      1  C        -1.8955268024   -0.3464267076   -0.2524405583
      2  C        -1.4909706667   -1.6861663078   -0.2151408811
      3  C        -0.0555021121   -1.7544784644    0.2054646933
      4  C         0.3046931159   -0.3284153713    0.4796955832
      5  C        -0.7930569823    0.4900225718    0.1950997508
      6  C        -3.1781184132    0.0292270740   -0.6581795095
      7  C        -4.0687309634   -0.9653207546   -1.0674924842
      8  C        -3.6648565863   -2.3080306590   -1.0825746914
      9  C        -2.3776843082   -2.6738203963   -0.6713913010
     10  H        -3.4790151036    1.0702899736   -0.6657037390
     11  H        -5.0686143672   -0.6976141776   -1.3899991109
     12  H        -4.3546437142   -3.0718543785   -1.4232228871
     13  H        -2.1043426844   -3.7143090492   -0.7251961161
     14  C        -0.7603643828    1.8715352307    0.3980307776
     15  C         1.4287317179    0.2403003946    1.1015578461
     16  C         0.3934029595    2.4394074184    0.9441055939
     17  C         1.4734887825    1.6233819779    1.3112131501
     18  H         2.2569242764   -0.3661909899    1.4368470310
     19  H         2.3480992170    2.0656261830    1.7742308545
     20  H        -1.6172802002    2.4918874141    0.1626627181
     21  H         0.4401271439    3.5085687218    1.1178193312
     22  C         0.7242276380   -2.8815117699    0.3547565519
     23  C         0.1826339218   -4.2277726193    0.9099039980
     24  C         2.1987770111   -3.0362495263    0.1465712140
     25  C         1.4123036394   -5.1745476890    0.8807166520
     26  C         2.5741488671   -4.3061564900    0.5637983749
     27  H         1.3199357241   -5.9175474896    0.0663382615
     28  H         1.5904806360   -5.7402294987    1.8040655052
     29  C         3.9002168635   -4.7542371564    0.5507779049
     30  C         4.8917055027   -3.9244395765    0.0606392775
     31  C         3.1840006251   -2.2518915061   -0.5569177978
     32  C         4.5506113251   -2.6936668496   -0.5386443740
     33  H         4.1475440871   -5.7489009487    0.9057480392
     34  H         5.9204721138   -4.2691544129    0.0538539663
     35  C         5.5520510410   -1.9334387014   -1.1785140807
     36  C         2.8862673011   -1.1210334032   -1.3504089679
     37  C         3.8866462634   -0.3982991523   -1.9925470819
     38  C         5.2254278228   -0.7871055918   -1.8864376469
     39  H         1.8712461605   -0.8021057483   -1.5057179810
     40  H         3.6217164891    0.4699805372   -2.5852104474
     41  H         6.5855466592   -2.2620705034   -1.1491095921
     42  H         6.0006402001   -0.2187234477   -2.3882402064
     43  H        -0.6026669930   -4.6572580749    0.2737403721
     44  C        -0.3370549904   -4.1737710746    2.4291402887
     45  C        -0.7919006804   -5.5930754003    2.8579132349
     46  H        -1.6081071238   -5.9522735452    2.2064108585
     47  H        -1.1693661151   -5.5790898131    3.8950190496
     48  H         0.0082858865   -6.3472582566    2.8349545257
     49  C         0.7807117215   -3.6775303982    3.3796647637
     50  C        -1.5581481856   -3.2635666974    2.6786759036
     51  H         1.6772889162   -4.3165168744    3.3653999233
     52  H         0.4181094859   -3.6637591029    4.4219258901
     53  H         1.0916486697   -2.6522325785    3.1178347634
     54  H        -2.4291922574   -3.5768346466    2.0867426637
     55  H        -1.3367232989   -2.2023890662    2.5097398330
     56  H        -1.8621048535   -3.3337526308    3.7390503090
   Point Group: c1    Number of degrees of freedom:   162


   Energy is  -1158.894320050

 Hessian updated using BFGS update

155 Hessian modes will be used to form the next step
  Hessian Eigenvalues:
     0.002000    0.002001    0.002087    0.003202    0.003910    0.009909
     0.012216    0.015627    0.017029    0.017488    0.017760    0.018970
     0.019399    0.019611    0.020088    0.020460    0.020753    0.020950
     0.021646    0.021712    0.021812    0.021847    0.021915    0.021919
     0.021935    0.021964    0.022152    0.022211    0.022259    0.022385
     0.022466    0.022612    0.022632    0.022724    0.023093    0.023109
     0.023220    0.023305    0.023568    0.023643    0.037326    0.039646
     0.041478    0.043558    0.046089    0.050028    0.050552    0.051915
     0.052624    0.054327    0.054515    0.055281    0.056536    0.058637
     0.071991    0.089662    0.090737    0.136043    0.137254    0.148722
     0.159107    0.159405    0.159865    0.159882    0.159940    0.159955
     0.159966    0.159979    0.159981    0.159983    0.159992    0.159994
     0.159995    0.159997    0.159999    0.174931    0.202737    0.204234
     0.219942    0.219981    0.221157    0.224273    0.225808    0.226058
     0.227985    0.232501    0.240263    0.242702    0.242977    0.244544
     0.246631    0.247599    0.247762    0.249260    0.262904    0.263912
     0.267476    0.272431    0.277155    0.280995    0.291666    0.312100
     0.315781    0.323603    0.323873    0.324020    0.324330    0.324738
     0.327692    0.329454    0.331302    0.331883    0.333807    0.334342
     0.339657    0.350039    0.355357    0.355441    0.356601    0.356878
     0.357053    0.357121    0.357194    0.357237    0.357545    0.357696
     0.358121    0.361513    0.368531    0.370032    0.372244    0.378870
     0.393909    0.397682    0.409790    0.411774    0.413361    0.421551
     0.430140    0.435925    0.445406    0.447694    0.448902    0.452360
     0.453417    0.454489    0.454984    0.456606    0.457769    0.458993
     0.460396    0.465816    0.469013    0.472664    0.503845

 Minimum search - taking simple RFO step
 Searching for Lamda that Minimizes Along All modes
 Value Taken    Lamda =  -0.02124130
 Calculated Step too Large.  Step scaled by  0.637333
 Step Taken.  Stepsize is  0.300000

                             Maximum     Tolerance    Cnvgd?
         Gradient           0.027224      0.000300      NO
         Displacement       0.101382      0.001200      NO
         Energy change     -0.007847      0.000001      NO


 New Cartesian Coordinates Obtained by Inverse Iteration

 Displacement from previous Coordinates is:  1.295678
 ----------------------------------------------------------------
             Standard Nuclear Orientation (Angstroms)
    I     Atom           X                Y                Z
 ----------------------------------------------------------------
    1      C      -1.8703105263    -0.3598528483    -0.2623828733
    2      C      -1.4469710778    -1.7138864183    -0.1947232816
    3      C      -0.0244676073    -1.7636908919     0.2341071986
    4      C       0.3529603419    -0.3460717208     0.4717483515
    5      C      -0.7611650547     0.4896566453     0.1859789591
    6      C      -3.1545957251    -0.0224843177    -0.6955792203
    7      C      -4.0205307662    -1.0378255290    -1.0936821482
    8      C      -3.5946493634    -2.3719581154    -1.0754893962
    9      C      -2.3160761063    -2.7144972973    -0.6411182907
   10      H      -3.4717424162     1.0165987507    -0.7318539793
   11      H      -5.0241750446    -0.7947370103    -1.4344491193
   12      H      -4.2700057888    -3.1564831340    -1.4076113949
   13      H      -2.0144538050    -3.7586680273    -0.6602858207
   14      C      -0.7018797107     1.8695852176     0.3892757483
   15      C       1.4888338553     0.2183258295     1.0645309050
   16      C       0.4623900504     2.4209107115     0.9192304291
   17      C       1.5382996961     1.5953209169     1.2696481821
   18      H       2.3230568406    -0.3990918400     1.3790518477
   19      H       2.4276382426     2.0321371224     1.7164792386
   20      H      -1.5559234159     2.5019050862     0.1596449310
   21      H       0.5269068428     3.4933213973     1.0876689017
   22      C       0.7395626462    -2.8999247100     0.3951549523
   23      C       0.1864766463    -4.2347727087     0.9589434963
   24      C       2.1832525200    -3.0619694597     0.1731923834
   25      C       1.3875837379    -5.2179080060     0.8802969967
   26      C       2.5733076169    -4.3522673157     0.5509429162
   27      H       1.2517645505    -5.9506231550     0.0767301054
   28      H       1.5345930172    -5.7984194356     1.7884270687
   29      C       3.9157968079    -4.7863005981     0.4992416897
   30      C       4.8771681200    -3.9361133975     0.0087573076
   31      C       3.1414155366    -2.2336959349    -0.5260823348
   32      C       4.5177457702    -2.6721705364    -0.5525484501
   33      H       4.1792192936    -5.7874089276     0.8334005908
   34      H       5.9173436049    -4.2503338273    -0.0283570488
   35      C       5.4932823934    -1.8642908042    -1.1986097654
   36      C       2.8116176560    -1.0703701123    -1.2627311353
   37      C       3.7811225800    -0.3267223936    -1.9057644286
   38      C       5.1403124431    -0.7059501509    -1.8537307598
   39      H       1.7751881992    -0.7692055448    -1.3496356504
   40      H       3.4835297544     0.5598833670    -2.4595281601
   41      H       6.5282748219    -2.1962494498    -1.1961601642
   42      H       5.8992774557    -0.1093826186    -2.3544985137
   43      H      -0.6283785841    -4.6176709827     0.3434021004
   44      C      -0.3475851556    -4.1572582296     2.4526327536
   45      C      -0.8574870588    -5.5579711239     2.8512845929
   46      H      -1.6626618747    -5.8863422945     2.1908226675
   47      H      -1.2552934588    -5.5279811382     3.8651217130
   48      H      -0.0817813741    -6.3247346446     2.8332578257
   49      C       0.7708593561    -3.7057076697     3.4131174594
   50      C      -1.5327681089    -3.1921369058     2.6470276443
   51      H       1.6342346445    -4.3721507590     3.4157413053
   52      H       0.3838630029    -3.6781199321     4.4314286816
   53      H       1.1233415514    -2.7056543749     3.1654323792
   54      H      -2.3872059541    -3.4509651551     2.0254305665
   55      H      -1.2684371684    -2.1554744343     2.4562786704
   56      H      -1.8575344507    -3.2529411630     3.6884113760
 ----------------------------------------------------------------
 Nuclear Repulsion Energy =  2807.8998333277 hartrees
 There are      103 alpha and      103 beta electrons
 Applying Cartesian multipole field
    Component          Value
    ---------          -----
     (2,0,0)        1.00000E-12
     (0,2,0)        2.00000E-12
     (0,0,2)       -3.00000E-11
 Nucleus-field energy     =    -0.0000000288 hartrees
 Requested basis set is 6-31G(d,p)
 There are 198 shells and 580 basis functions
 A cutoff of  1.0D-11 yielded  10681 shell pairs
 There are     97782 function pairs
 Smallest overlap matrix eigenvalue = 2.51E-04
 Guess MOs from SCF MO coefficient file

 -----------------------------------------------------------------------
  General SCF calculation program by
  Eric Jon Sundstrom, Paul Horn, Yuezhi Mao, Dmitri Zuev, Alec White,
  David Stuck, Shaama M.S., Shane Yost, Joonho Lee, David Small,
  Daniel Levine, Susi Lehtola, Hugh Burton, Evgeny Epifanovsky
 -----------------------------------------------------------------------
 Exchange:     0.2000 Hartree-Fock + 0.0800 Slater + 0.7200 B88
 Correlation:  0.1900 VWN1RPA + 0.8100 LYP
 Using SG-1 standard quadrature grid
 using 14 threads for integral computing
 -------------------------------------------------------
 OpenMP Integral computing Module                
 Release: version 1.0, May 2013, Q-Chem Inc. Pittsburgh 
 -------------------------------------------------------
 -------------------------------------------------------
 OpenMP BLAS3 based DFT computing Module                
 Release: version 1.0, May 2013, Q-Chem Inc. Pittsburgh 
 -------------------------------------------------------
 A restricted SCF calculation will be
 performed using DIIS
 SCF converges when DIIS error is below 1.0e-08
 ---------------------------------------
  Cycle       Energy         DIIS error
 ---------------------------------------
    1   -1158.8872292864      4.03e-04  
    2   -1158.8995870327      9.08e-05  
    3   -1158.8992730944      1.29e-04  
    4   -1158.8999715152      2.81e-05  
    5   -1158.9000037623      1.10e-05  
    6   -1158.9000086154      4.10e-06  
    7   -1158.9000093481      1.41e-06  
    8   -1158.9000094333      5.53e-07  
    9   -1158.9000094476      1.33e-07  
   10   -1158.9000094482      7.85e-08  
   11   -1158.9000094484      2.49e-08  
   12   -1158.9000094484      8.28e-09  Convergence criterion met
 ---------------------------------------
 SCF time:   CPU 937.80s  wall 68.00s 
 SCF   energy in the final basis set =    -1158.9000094484
 Total energy in the final basis set =    -1158.9000094484
 
 --------------------------------------------------------------
 
                    Orbital Energies (a.u.)
 --------------------------------------------------------------
 
 Alpha MOs
 -- Occupied --
-10.2093 -10.2023 -10.2014 -10.2009 -10.2003 -10.2001 -10.1988 -10.1985
-10.1952 -10.1936 -10.1917 -10.1901 -10.1892 -10.1890 -10.1871 -10.1864
-10.1843 -10.1840 -10.1837 -10.1835 -10.1834 -10.1829 -10.1827 -10.1822
-10.1821 -10.1817 -10.1804 -10.1710 -10.1661 -10.1593  -0.8869  -0.8752
 -0.8491  -0.8343  -0.8163  -0.7992  -0.7859  -0.7633  -0.7568  -0.7401
 -0.7343  -0.7128  -0.7045  -0.7026  -0.6830  -0.6735  -0.6579  -0.6267
 -0.6192  -0.6081  -0.5904  -0.5858  -0.5768  -0.5640  -0.5449  -0.5270
 -0.5152  -0.5064  -0.4886  -0.4847  -0.4759  -0.4736  -0.4666  -0.4529
 -0.4488  -0.4353  -0.4338  -0.4305  -0.4267  -0.4225  -0.4149  -0.4116
 -0.4086  -0.4054  -0.4004  -0.3962  -0.3931  -0.3835  -0.3814  -0.3766
 -0.3738  -0.3626  -0.3590  -0.3544  -0.3493  -0.3457  -0.3443  -0.3361
 -0.3325  -0.3282  -0.3240  -0.3221  -0.3209  -0.3108  -0.3077  -0.2938
 -0.2804  -0.2693  -0.2423  -0.2390  -0.2249  -0.2062  -0.1846
 -- Virtual --
 -0.0768  -0.0265  -0.0148  -0.0102   0.0126   0.0357   0.0500   0.0679
  0.0774   0.0919   0.0989   0.1028   0.1066   0.1129   0.1228   0.1256
  0.1382   0.1428   0.1456   0.1519   0.1562   0.1597   0.1628   0.1661
  0.1708   0.1716   0.1764   0.1821   0.1856   0.1938   0.1961   0.2002
  0.2018   0.2104   0.2152   0.2169   0.2231   0.2300   0.2318   0.2385
  0.2420   0.2520   0.2535   0.2552   0.2608   0.2640   0.2710   0.2813
  0.2913   0.2983   0.3075   0.3090   0.3167   0.3212   0.3277   0.3353
  0.3532   0.3589   0.3690   0.3815   0.3945   0.4030   0.4108   0.4333
  0.4556   0.4650   0.4692   0.4823   0.4918   0.5006   0.5038   0.5105
  0.5131   0.5193   0.5237   0.5326   0.5396   0.5406   0.5458   0.5522
  0.5555   0.5566   0.5595   0.5669   0.5701   0.5718   0.5746   0.5769
  0.5805   0.5864   0.5916   0.5937   0.6004   0.6026   0.6048   0.6069
  0.6118   0.6134   0.6164   0.6184   0.6208   0.6234   0.6263   0.6303
  0.6317   0.6399   0.6416   0.6479   0.6494   0.6555   0.6661   0.6682
  0.6727   0.6845   0.6885   0.6993   0.7053   0.7067   0.7135   0.7272
  0.7329   0.7478   0.7585   0.7793   0.7884   0.7956   0.8010   0.8024
  0.8058   0.8135   0.8163   0.8190   0.8229   0.8288   0.8293   0.8360
  0.8415   0.8435   0.8495   0.8554   0.8558   0.8621   0.8699   0.8756
  0.8802   0.8860   0.8902   0.8945   0.8949   0.9028   0.9087   0.9103
  0.9187   0.9223   0.9295   0.9383   0.9445   0.9476   0.9532   0.9592
  0.9636   0.9742   0.9765   0.9866   0.9905   0.9983   1.0028   1.0104
  1.0160   1.0174   1.0248   1.0281   1.0378   1.0495   1.0598   1.0679
  1.0779   1.0906   1.0969   1.1074   1.1146   1.1175   1.1282   1.1400
  1.1443   1.1649   1.1732   1.1787   1.1878   1.2063   1.2192   1.2247
  1.2350   1.2477   1.2607   1.2715   1.2784   1.2895   1.2985   1.3061
  1.3138   1.3299   1.3325   1.3433   1.3603   1.3620   1.3704   1.3728
  1.3779   1.3912   1.3974   1.4119   1.4158   1.4192   1.4237   1.4256
  1.4278   1.4349   1.4439   1.4473   1.4558   1.4703   1.4762   1.4878
  1.5001   1.5106   1.5153   1.5324   1.5635   1.5721   1.5815   1.5955
  1.6162   1.6270   1.6381   1.6658   1.6863   1.7074   1.7220   1.7280
  1.7418   1.7478   1.7514   1.7625   1.7663   1.7745   1.7810   1.7869
  1.7906   1.7996   1.8082   1.8150   1.8298   1.8408   1.8511   1.8570
  1.8649   1.8667   1.8703   1.8776   1.8785   1.8861   1.8873   1.8972
  1.9005   1.9019   1.9085   1.9197   1.9249   1.9379   1.9419   1.9456
  1.9492   1.9521   1.9607   1.9723   1.9773   1.9828   1.9884   1.9946
  2.0009   2.0048   2.0102   2.0225   2.0246   2.0262   2.0355   2.0432
  2.0534   2.0644   2.0683   2.0714   2.0775   2.0903   2.0940   2.1124
  2.1205   2.1310   2.1413   2.1422   2.1482   2.1551   2.1585   2.1610
  2.1722   2.1802   2.1885   2.1983   2.2160   2.2184   2.2266   2.2319
  2.2389   2.2450   2.2555   2.2730   2.2846   2.2921   2.2935   2.2966
  2.3112   2.3180   2.3205   2.3397   2.3424   2.3530   2.3591   2.3665
  2.3746   2.3787   2.3812   2.3888   2.3908   2.3958   2.4020   2.4071
  2.4113   2.4331   2.4406   2.4438   2.4538   2.4587   2.4654   2.4724
  2.4757   2.4788   2.4872   2.4959   2.4977   2.5095   2.5187   2.5282
  2.5322   2.5412   2.5436   2.5586   2.5613   2.5697   2.5774   2.5819
  2.5932   2.5957   2.6027   2.6145   2.6215   2.6234   2.6295   2.6369
  2.6476   2.6554   2.6639   2.6763   2.6827   2.6885   2.6934   2.7002
  2.7076   2.7245   2.7249   2.7333   2.7501   2.7564   2.7620   2.7637
  2.7719   2.7756   2.7814   2.7829   2.7922   2.8189   2.8275   2.8339
  2.8584   2.8747   2.8866   2.8953   2.9060   2.9088   2.9110   2.9185
  2.9307   2.9471   2.9641   2.9860   2.9916   3.0062   3.0112   3.0386
  3.0492   3.0941   3.1244   3.1496   3.1810   3.1872   3.2010   3.2181
  3.2221   3.2415   3.2465   3.2517   3.2565   3.2661   3.2673   3.2826
  3.2917   3.3247   3.3280   3.3420   3.3555   3.3731   3.3914   3.4244
  3.4393   3.4476   3.4582   3.4588   3.4683   3.4791   3.4943   3.5146
  3.5182   3.5493   3.5739   3.7067   3.8246   3.8618   3.9027   4.1100
  4.1235   4.1415   4.1499   4.1532   4.1633   4.1654   4.1993   4.2036
  4.2159   4.2414   4.2570   4.3110   4.3243   4.3969   4.4166   4.4338
  4.4612   4.5261   4.5381   4.5553   4.5814   4.5896   4.6231   4.6798
  4.7558   4.8149   4.8777   4.9256   4.9359
 --------------------------------------------------------------
 
          Ground-State Mulliken Net Atomic Charges

     Atom                 Charge (a.u.)
  ----------------------------------------
      1 C                     0.031682
      2 C                     0.070421
      3 C                    -0.037710
      4 C                     0.019395
      5 C                     0.033701
      6 C                    -0.119757
      7 C                    -0.097816
      8 C                    -0.092096
      9 C                    -0.135115
     10 H                     0.081641
     11 H                     0.081153
     12 H                     0.078854
     13 H                     0.077858
     14 C                    -0.122185
     15 C                    -0.119097
     16 C                    -0.097551
     17 C                    -0.091942
     18 H                     0.096382
     19 H                     0.080932
     20 H                     0.081319
     21 H                     0.080586
     22 C                    -0.020544
     23 C                    -0.109661
     24 C                     0.058975
     25 C                    -0.258375
     26 C                     0.049038
     27 H                     0.119705
     28 H                     0.112292
     29 C                    -0.125954
     30 C                    -0.124279
     31 C                     0.052261
     32 C                     0.100465
     33 H                     0.084822
     34 H                     0.088306
     35 C                    -0.137086
     36 C                    -0.117105
     37 C                    -0.098844
     38 C                    -0.086322
     39 H                     0.115998
     40 H                     0.091211
     41 H                     0.084244
     42 H                     0.086472
     43 H                     0.096235
     44 C                     0.045010
     45 C                    -0.300628
     46 H                     0.097170
     47 H                     0.100649
     48 H                     0.094121
     49 C                    -0.313153
     50 C                    -0.302920
     51 H                     0.094986
     52 H                     0.098345
     53 H                     0.114012
     54 H                     0.101409
     55 H                     0.119032
     56 H                     0.089459
  ----------------------------------------
  Sum of atomic charges =    -0.000000

 -----------------------------------------------------------------
                    Cartesian Multipole Moments
 -----------------------------------------------------------------
    Charge (ESU x 10^10)
                -0.0000
    Dipole Moment (Debye)
         X       1.1255      Y      -1.4231      Z       0.1167
       Tot       1.8181
    Quadrupole Moments (Debye-Ang)
        XX    -160.0498     XY      -4.4087     YY    -154.5004
        XZ       1.3664     YZ      -4.1408     ZZ    -177.1749
    Octopole Moments (Debye-Ang^2)
       XXX    -344.9522    XXY     314.7491    XYY    -111.2868
       YYY     951.3342    XXZ     -86.4162    XYZ     -12.7707
       YYZ     -38.8901    XZZ    -135.3029    YZZ     351.7114
       ZZZ    -172.3904
    Hexadecapole Moments (Debye-Ang^3)
      XXXX   -7325.3240   XXXY     926.0557   XXYY   -2665.6703
      XYYY     963.7246   YYYY   -8710.0812   XXXZ     197.6193
      XXYZ     302.3867   XYYZ     163.0327   YYYZ     862.8108
      XXZZ   -1746.8700   XYZZ     434.9579   YYZZ   -1951.4632
      XZZZ     226.7549   YZZZ     884.9132   ZZZZ   -2393.1967
 -----------------------------------------------------------------
 Calculating analytic gradient of the SCF energy
 Gradient of SCF Energy
            1           2           3           4           5           6
    1  -0.0022479  -0.0022952   0.0054343   0.0037141   0.0018887  -0.0027554
    2  -0.0018159  -0.0011847  -0.0064465   0.0024509   0.0026894  -0.0007045
    3  -0.0020609  -0.0016141   0.0025825  -0.0003174   0.0020506  -0.0001215
            7           8           9          10          11          12
    1   0.0017708   0.0025107  -0.0005267  -0.0003714  -0.0008037  -0.0001400
    2   0.0010099   0.0008253   0.0022994   0.0002559   0.0002617  -0.0005352
    3   0.0008281   0.0013768   0.0005372   0.0000967  -0.0004256  -0.0001115
           13          14          15          16          17          18
    1   0.0010962   0.0012171   0.0006321  -0.0014780  -0.0012891   0.0000611
    2  -0.0025754   0.0021774   0.0009976  -0.0017524  -0.0023131  -0.0000930
    3  -0.0000421   0.0000630  -0.0014335  -0.0009056  -0.0013977   0.0012572
           19          20          21          22          23          24
    1   0.0004508  -0.0001928  -0.0000978  -0.0046682  -0.0038162   0.0009607
    2  -0.0000696   0.0004827   0.0008671   0.0030881   0.0009579   0.0027619
    3   0.0001903  -0.0001374   0.0002191  -0.0028525  -0.0014549  -0.0005816
           25          26          27          28          29          30
    1  -0.0018920  -0.0008450   0.0000708  -0.0004197   0.0040750   0.0000682
    2  -0.0056890   0.0022840   0.0008094   0.0009424  -0.0008938  -0.0039340
    3   0.0050064   0.0007429   0.0013532  -0.0022142  -0.0001816   0.0032086
           31          32          33          34          35          36
    1  -0.0038978   0.0016486   0.0005640  -0.0000992   0.0008771   0.0004473
    2   0.0022669   0.0007343  -0.0009196  -0.0011890   0.0018483  -0.0006575
    3  -0.0014095  -0.0015488  -0.0002016  -0.0000902  -0.0006717   0.0023056
           37          38          39          40          41          42
    1  -0.0005883   0.0008071  -0.0032000  -0.0008240   0.0000421   0.0012281
    2  -0.0005943  -0.0002165   0.0011031   0.0006377   0.0004204   0.0000719
    3   0.0005736   0.0001069   0.0001926   0.0003772  -0.0004873  -0.0005509
           43          44          45          46          47          48
    1   0.0017838   0.0003181  -0.0016770   0.0021682   0.0015919  -0.0012636
    2   0.0002736  -0.0021557  -0.0003305   0.0003811   0.0003588   0.0007603
    3  -0.0005869   0.0012144   0.0001422   0.0017272  -0.0034408  -0.0000214
           49          50          51          52          53          54
    1   0.0009826  -0.0019004  -0.0016967   0.0008390  -0.0006067   0.0020121
    2   0.0021690   0.0016484   0.0017414  -0.0002944  -0.0032221   0.0006362
    3   0.0007297  -0.0016069   0.0003672  -0.0037247   0.0008635   0.0027369
           55          56
    1  -0.0007864   0.0011186
    2  -0.0025561  -0.0000691
    3   0.0015318  -0.0021881
 Max gradient component =       6.446E-03
 RMS gradient           =       1.816E-03
 Gradient time:  CPU 267.66 s  wall 21.96 s
 Geometry Optimization Parameters
   NAtoms,    NIC,     NZ,  NCons,   NDum,   NFix, NCnnct, MaxDiis
       56     450       0       0       0       0       0       0

 Cartesian Hessian Update
 Hessian updated using BFGS update


** GEOMETRY OPTIMIZATION IN DELOCALIZED INTERNAL COORDINATES **
   Searching for a Minimum

   Optimization Cycle:   3

                       Coordinates (Angstroms)
[...]
  H      2.36028117      2.03840631      1.77503916
  H     -1.64041607      2.47553956      0.25225505
  H      0.42069538      3.47706492      1.21516739
  C      0.73335173     -2.88601556      0.38725101
  C      0.17273765     -4.20823619      0.96628260
  C      2.17003311     -3.06531484      0.15569111
  C      1.34640948     -5.20957544      0.83906707
  C      2.54192929     -4.36392845      0.51965745
  H      1.17988930     -5.91761468      0.01631333
  H      1.49236389     -5.81936297      1.73504117
  C      3.87559832     -4.80955569      0.47879806
  C      4.85318032     -3.96322888      0.00948500
  C      3.14600580     -2.24624603     -0.53238567
  C      4.51237708     -2.69779490     -0.54367935
  H      4.12263372     -5.81252657      0.81593121
  H      5.89422106     -4.27476863     -0.00652623
  C      5.50703723     -1.90629969     -1.17607447
  C      2.83939181     -1.08187741     -1.28018377
  C      3.82398026     -0.35628573     -1.92095372
  C      5.17654629     -0.74892900     -1.84444383
  H      1.81005305     -0.76882899     -1.37498160
  H      3.54848136      0.52313579     -2.49540324
  H      6.53719476     -2.25194200     -1.14912801
  H      5.94478084     -0.15880181     -2.33520467
  H     -0.68627009     -4.56652072      0.39148491
  C     -0.30754946     -4.11852393      2.47823217
  C     -0.82045251     -5.51660181      2.88966914
  H     -1.65550546     -5.82996184      2.25250987
  H     -1.18368160     -5.49330904      3.92241957
  H     -0.04827213     -6.28938605      2.83552590
  C      0.85121002     -3.69773823      3.40478610
  C     -1.47364181     -3.13560135      2.69467716
  H      1.70563792     -4.37981211      3.35155508
  H      0.50955316     -3.68515139      4.44531703
  H      1.20716855     -2.69234257      3.16032897
  H     -2.33293296     -3.37608109      2.06307790
  H     -1.19181494     -2.09939776      2.50415226
  H     -1.80184643     -3.19760640      3.73816021
  56
Step 7
  C     -1.90843917     -0.38517230     -0.28353059
  C     -1.47049896     -1.73638981     -0.24974636
  C     -0.05351626     -1.77518396      0.18517907
  C      0.30500370     -0.36524709      0.46011326
  C     -0.82213065      0.46066557      0.20465539
  C     -3.17943958     -0.04768780     -0.74860918
  C     -4.02835291     -1.05786196     -1.19963225
  C     -3.59438151     -2.38911050     -1.20496014
  C     -2.32200349     -2.73121772     -0.74628899
  H     -3.50069924      0.99016804     -0.77146581
  H     -5.02190086     -0.81063161     -1.56229248
  H     -4.25368660     -3.16861327     -1.57601690
  H     -2.00962843     -3.76845369     -0.78982234
  C     -0.79278087      1.82657587      0.48542165
  C      1.43261902      0.19591688      1.07439074
  C      0.35793995      2.37851686      1.04836103
  C      1.45556199      1.56299118      1.35099526
  H      2.28644267     -0.41784829      1.33665588
  H      2.33632484      1.99722225      1.81526674
  H     -1.66188032      2.44949019      0.29099895
  H      0.39447902      3.44039274      1.27421613
  C      0.72523868     -2.90637276      0.37038989
  C      0.17786767     -4.22363125      0.97184759
  C      2.16422810     -3.07591882      0.14667190
  C      1.34899730     -5.22650440      0.82212291
  C      2.54194553     -4.37485780      0.50705943
  H      1.17815737     -5.92132893     -0.01079971
  H      1.50322258     -5.85070917      1.70496958
  C      3.87815549     -4.81390409      0.46895452
  C      4.85328516     -3.96050719      0.00828905
  C      3.13921141     -2.24922564     -0.53402873
  C      4.50833594     -2.69391916     -0.54097783
  H      4.12893760     -5.81728869      0.80246553
  H      5.89592632     -4.26697564     -0.00469448
  C      5.50152597     -1.89480673     -1.16719401
  C      2.82932954     -1.08593592     -1.28233379
  C      3.81264773     -0.35348327     -1.91661193
  C      5.16761119     -0.73813912     -1.83431389
  H      1.79842142     -0.77937393     -1.38220831
  H      3.53440269      0.52501123     -2.49138662
  H      6.53341793     -2.23498430     -1.13662818
  H      5.93481216     -0.14264152     -2.32052862
  H     -0.69402551     -4.58383442      0.42133300
  C     -0.28033030     -4.10207756      2.49104095
  C     -0.85524394     -5.46781161      2.93153410
  H     -1.70332314     -5.75703614      2.30103474
  H     -1.21767172     -5.40538269      3.96229615
  H     -0.12063820     -6.27599229      2.89612468
  C      0.89978385     -3.71150398      3.40353778
  C     -1.40088695     -3.06677500      2.69920955
  H      1.72663612     -4.42608926      3.35823129
  H      0.56442006     -3.66833836      4.44462590
  H      1.29315296     -2.72546502      3.14134490
  H     -2.27343745     -3.27784558      2.07641910
  H     -1.07424103     -2.04745471      2.49031875
  H     -1.72476488     -3.09820787      3.74501571
  56
Step 8
  C     -1.91496055     -0.38350366     -0.26256573
  C     -1.47448399     -1.73445167     -0.25737224
  C     -0.05493299     -1.77758942      0.16948482
  C      0.30275270     -0.37370192      0.46539690
  C     -0.82936444      0.45324947      0.23929935
  C     -3.18706751     -0.03865944     -0.71799447
  C     -4.03749526     -1.04035434     -1.18597806
  C     -3.60248967     -2.37055114     -1.22011535
  C     -2.32771616     -2.71969205     -0.77226584
  H     -3.50890536      0.99919547     -0.71888497
  H     -5.03251816     -0.78697496     -1.53951676
  H     -4.26246670     -3.14294052     -1.60453331
  H     -2.01447490     -3.75440112     -0.84013853
  C     -0.80253008      1.81120088      0.55502686
  C      1.43409081      0.17683615      1.08246230
  C      0.35085419      2.35441470      1.12274580
  C      1.45453076      1.53657381      1.39510290
  H      2.29377802     -0.44013379      1.31769726
  H      2.33833386      1.96291705      1.86091756
  H     -1.67554327      2.43479430      0.38224373
  H      0.38577628      3.41053790      1.37342899
  C      0.72564868     -2.90944376      0.34969229
  C      0.17622892     -4.21982727      0.96068513
  C      2.16508832     -3.08398893      0.13001507
  C      1.33703252     -5.23102845      0.79764753
  C      2.53575269     -4.38359528      0.49566652
  H      1.16235636     -5.91141489     -0.04723500
  H      1.48333413     -5.87095794      1.67088239
  C      3.87025432     -4.82533491      0.47267309
  C      4.85240234     -3.97542762      0.02113393
  C      3.14894154     -2.26537661     -0.54941778
  C      4.51628957     -2.71254234     -0.53786184
  H      4.11457692     -5.82760062      0.81326128
  H      5.89518800     -4.28153394      0.02201064
  C      5.51866153     -1.92247332     -1.15933663
  C      2.85114441     -1.11205390     -1.31862620
  C      3.84271561     -0.38986248     -1.95121600
  C      5.19575328     -0.77388785     -1.84454025
  H      1.82285195     -0.80741341     -1.43725316
  H      3.57362751      0.47958155     -2.54369414
  H      6.54888552     -2.26599838     -1.11179854
  H      5.96934946     -0.18558809     -2.32854755
  H     -0.70508506     -4.57510050      0.42343674
  C     -0.28068421     -4.07524010      2.48006542
  C     -0.75681685     -5.46221734      2.97083043
  H     -1.59072813     -5.82759247      2.35995790
  H     -1.11161958     -5.39287364      4.00506575
  H      0.03176016     -6.21926757      2.94892129
  C      0.86791813     -3.56842972      3.37647935
  C     -1.47275699     -3.11402154      2.64896142
  H      1.74190557     -4.22656587      3.36367215
  H      0.52566626     -3.50229570      4.41534399
  H      1.19494322     -2.56936742      3.07208412
  H     -2.32024232     -3.40051302      2.01974208
  H     -1.21273440     -2.08076200      2.41168153
  H     -1.80863696     -3.13754039      3.69219581
  56
Step 9
  C     -1.91465912     -0.38555733     -0.27418744
  C     -1.47102511     -1.73453230     -0.24958904
  C     -0.05226698     -1.76912007      0.17726775
  C      0.30258479     -0.35997647      0.45560504
  C     -0.83045715      0.46130953      0.21452959
  C     -3.18870611     -0.05135515     -0.73239495
  C     -4.03604787     -1.06315899     -1.18435905
  C     -3.59698067     -2.39273695     -1.19842505
  C     -2.32053463     -2.73109636     -0.74715933
  H     -3.51437444      0.98514781     -0.74776491
  H     -5.03235173     -0.81841025     -1.54042635
  H     -4.25493926     -3.17309161     -1.56987775
  H     -2.00286824     -3.76593987     -0.79831438
  C     -0.80688166      1.82443487      0.50801183
  C      1.43179553      0.20236241      1.06624405
  C      0.34467962      2.37870967      1.06839294
  C      1.44923286      1.56718816      1.35613724
  H      2.29153077     -0.40889848      1.31495529
  H      2.33125067      2.00253860      1.81687224
  H     -1.68075697      2.44363016      0.32426881
  H      0.37713423      3.43876883      1.30230295
  C      0.72768074     -2.89934227      0.36465693
  C      0.17408325     -4.21439482      0.96425503
  C      2.16601484     -3.07502524      0.14067569
  C      1.33786902     -5.22228838      0.80727265
  C      2.53644005     -4.37511860      0.50293272
  H      1.16371497     -5.90462368     -0.03621015
  H      1.48526739     -5.85938781      1.68287542
  C      3.87066259     -4.81778686      0.47473045
  C      4.85187718     -3.96808017      0.01952289
  C      3.14761462     -2.25472041     -0.53829262
  C      4.51457883     -2.70324213     -0.53493701
  H      4.11568333     -5.82117027      0.81162511
  H      5.89395766     -4.27645265      0.01495802
  C      5.51444639     -1.91070272     -1.15740425
  C      2.84666429     -1.09476409     -1.29577191
  C      3.83604162     -0.36922583     -1.92854601
  C      5.18885309     -0.75695507     -1.83345224
  H      1.81796423     -0.78638672     -1.40479299
  H      3.56497992      0.50588333     -2.51167490
  H      6.54479927     -2.25462242     -1.11764968
  H      5.96074380     -0.16652013     -2.31770932
  H     -0.70468730     -4.56725741      0.41972234
  C     -0.27949045     -4.09037741      2.48544005
  C     -0.82798982     -5.46470015      2.93292546
  H     -1.67334284     -5.77110095      2.30567136
  H     -1.18788060     -5.40619760      3.96590066
  H     -0.07800663     -6.25959454      2.89651537
  C      0.89678411     -3.67986358      3.39405696
  C     -1.41880297     -3.07283585      2.68749016
  H      1.73246519     -4.38537698      3.35004942
  H      0.56273656     -3.63514170      4.43668254
  H      1.27788407     -2.68980862      3.12552139
  H     -2.28263906     -3.29605376      2.05502163
  H     -1.10612065     -2.04776042      2.48175689
  H     -1.75206520     -3.11001030      3.73111249
  56
Step 10
  C     -1.91888987     -0.38755967     -0.27516344
  C     -1.47549748     -1.73694806     -0.25332571
  C     -0.05549893     -1.77305782      0.17069859
  C      0.30092806     -0.36361779      0.44889569
  C     -0.83213703      0.45887115      0.20969008
  C     -3.19443285     -0.05224246     -0.72886900
  C     -4.04290965     -1.06293187     -1.18028943
  C     -3.60354462     -2.39230389     -1.19879585
  C     -2.32614576     -2.73191862     -0.75184506
  H     -3.52004956      0.98437096     -0.74187744
  H     -5.04011760     -0.81734918     -1.53359488
  H     -4.26215422     -3.17176744     -1.57109367
  H     -2.00827033     -3.76661569     -0.80806086
  C     -0.80688101      1.82234528      0.50180201
  C      1.43158198      0.19857168      1.05689081
  C      0.34621989      2.37591782      1.05896016
  C      1.45064347      1.56360479      1.34472437
  H      2.29115011     -0.41282896      1.30559009
  H      2.33393865      1.99845863      1.80357024
  H     -1.68071087      2.44227654      0.31979811
  H      0.37981083      3.43612623      1.29251285
  C      0.72396975     -2.90369803      0.35686790
  C      0.17284678     -4.21755771      0.96144859
  C      2.16296853     -3.07747781      0.13831571
  C      1.33734139     -5.22506599      0.80862405
  C      2.53557381     -4.37618270      0.50526183
  H      1.16549735     -5.90724315     -0.03523425
  H      1.48336434     -5.86214141      1.68432535
  C      3.87136156     -4.81552901      0.48274025
  C      4.85186243     -3.96413618      0.02908898
  C      3.14503337     -2.25464172     -0.53614678
  C      4.51340823     -2.70011366     -0.52810464
  H      4.11810036     -5.81772918      0.82231054
  H      5.89459319     -4.27046737      0.02869427
  C      5.51312376     -1.90418502     -1.14734658
  C      2.84321323     -1.09422921     -1.29246531
  C      3.83286407     -0.36531312     -1.92076232
  C      5.18656018     -0.75040450     -1.82287775
  H      1.81366551     -0.78794441     -1.40342747
  H      3.56122516      0.51051365     -2.50264892
  H      6.54436821     -2.24506956     -1.10478225
  H      5.95870776     -0.15750998     -2.30405908
  H     -0.70580558     -4.57382268      0.42015983
  C     -0.27565133     -4.09056270      2.48341016
  C     -0.83731668     -5.46030058      2.92766033
  H     -1.69406468     -5.75112015      2.30912489
  H     -1.18319263     -5.40481468      3.96502741
  H     -0.09802865     -6.26404127      2.87573820
  C      0.90791930     -3.69550129      3.38847460
  C     -1.40131448     -3.06019720      2.69284029
  H      1.73392477     -4.41165916      3.34232432
  H      0.57682704     -3.64670721      4.43123086
  H      1.30149520     -2.71089468      3.11960048
  H     -2.26977138     -3.27038403      2.06346535
  H     -1.07685157     -2.03836130      2.49065376
  H     -1.73071149     -3.09769863      3.73726973
  56
Step 11
  C     -1.91858700     -0.38814244     -0.27456702
  C     -1.47317087     -1.73664925     -0.25165331
  C     -0.05334413     -1.77035906      0.17241630
  C      0.30100061     -0.36023617      0.44992201
  C     -0.83337930      0.46015890      0.21013451
  C     -3.19458947     -0.05524402     -0.72864534
  C     -4.04147120     -1.06774567     -1.17927444
  C     -3.60007021     -2.39650243     -1.19660043
  C     -2.32203810     -2.73358761     -0.74935282
  H     -3.52192176      0.98079951     -0.74226668
  H     -5.03909917     -0.82409112     -1.53262674
  H     -4.25745325     -3.17731818     -1.56818128
  H     -2.00221086     -3.76770216     -0.80468496
  C     -0.81072078      1.82372125      0.50190105
  C      1.43027314      0.20423313      1.05848897
  C      0.34115755      2.37969100      1.05936323
  C      1.44682397      1.56943347      1.34605096
  H      2.29078406     -0.40545229      1.30790280
  H      2.32912695      2.00596073      1.80518273
  H     -1.68563443      2.44191677      0.31935254
  H      0.37276214      3.44002369      1.29247791
  C      0.72648551     -2.90047369      0.36003346
  C      0.17331986     -4.21476049      0.96183501
  C      2.16499514     -3.07624617      0.13932697
  C      1.33572348     -5.22392192      0.80389776
  C      2.53548264     -4.37632956      0.50315230
  H      1.16189334     -5.90122962     -0.04363156
  H      1.48134237     -5.86601142      1.67594103
  C      3.87042271     -4.81763888      0.47932596
  C      4.85206164     -3.96714449      0.02623410
  C      3.14754067     -2.25495804     -0.53617202
  C      4.51512672     -2.70246313     -0.52978941
  H      4.11574520     -5.82074211      0.81712087
  H      5.89431534     -4.27505069      0.02477464
  C      5.51540665     -1.90793951     -1.14971016
  C      2.84661370     -1.09420712     -1.29238537
  C      3.83666572     -0.36665675     -1.92164141
  C      5.18984779     -0.75360591     -1.82479440
  H      1.81744439     -0.78654501     -1.40233762
  H      3.56586425      0.50951467     -2.50336022
  H      6.54617128     -2.25040430     -1.10825623
  H      5.96232951     -0.16178558     -2.30665728
  H     -0.70686335     -4.56745509      0.42049534
  C     -0.27552974     -4.08987201      2.48476837
  C     -0.84019270     -5.45930916      2.92667679
  H     -1.69455791     -5.74925216      2.30425691
  H     -1.19067530     -5.40373874      3.96268888
  H     -0.10140349     -6.26370939      2.87773304
  C      0.90689908     -3.69682668      3.39243491
  C     -1.40045336     -3.05888706      2.69479485
  H      1.73169280     -4.41461699      3.34927000
  H      0.57326679     -3.64626054      4.43446360
  H      1.30316771     -2.71311257      3.12368958
  H     -2.26671571     -3.26453911      2.06067152
  H     -1.07332139     -2.03653903      2.49900839
  H     -1.73420927     -3.10097982      3.73782140
  56
Step 12
  C     -1.91888322     -0.38788239     -0.27289310
  C     -1.47354349     -1.73639972     -0.25243066
  C     -0.05368948     -1.77083369      0.17148877
  C      0.30120031     -0.36116150      0.44976811
  C     -0.83343910      0.45950716      0.21262936
  C     -3.19503344     -0.05412011     -0.72584096
  C     -4.04222077     -1.06577635     -1.17790865
  C     -3.60082838     -2.39450872     -1.19804603
  C     -2.32257893     -2.73239866     -0.75192311
  H     -3.52227440      0.98196595     -0.73738623
  H     -5.04005048     -0.82148035     -1.53017811
  H     -4.25838821     -3.17459409     -1.57082692
  H     -2.00276971     -3.76634073     -0.80945410
  C     -0.81044867      1.82257916      0.50649627
  C      1.43135437      0.20244104      1.05748517
  C      0.34214757      2.37782158      1.06339874
  C      1.44824894      1.56720077      1.34735696
  H      2.29230461     -0.40761946      1.30455839
  H      2.33122712      2.00303995      1.80583659
  H     -1.68555115      2.44099873      0.32571908
  H      0.37411700      3.43782437      1.29786441
  C      0.72608336     -2.90104999      0.35880941
  C      0.17294116     -4.21519402      0.96105952
  C      2.16468969     -3.07659785      0.13855382
  C      1.33577974     -5.22379951      0.80439017
  C      2.53552344     -4.37596591      0.50430851
  H      1.16268815     -5.90103374     -0.04344940
  H      1.48082236     -5.86591230      1.67656991
  C      3.87072490     -4.81622925      0.48271910
  C      4.85231209     -3.96571235      0.02944745
  C      3.14738314     -2.25566339     -0.53717723
  C      4.51518351     -2.70224201     -0.52879676
  H      4.11639471     -5.81856962      0.82242606
  H      5.89482595     -4.27272570      0.02979447
  C      5.51556562     -1.90815668     -1.14895987
  C      2.84652608     -1.09631628     -1.29563871
  C      3.83668489     -0.36929827     -1.92531918
  C      5.18997046     -0.75522642     -1.82637390
  H      1.81731185     -0.78965930     -1.40720993
  H      3.56599992      0.50558680     -2.50900733
  H      6.54647252     -2.25001429     -1.10594030
  H      5.96251084     -0.16380145     -2.30855478
  H     -0.70727789     -4.56854831      0.42017477
  C     -0.27613812     -4.08922255      2.48370219
  C     -0.83589318     -5.45997706      2.92787077
  H     -1.68916100     -5.75396795      2.30572296
  H     -1.18674481     -5.40403324      3.96384807
  H     -0.09413651     -6.26183749      2.88018149
  C      0.90541485     -3.69133602      3.39029197
  C     -1.40430023     -3.06102519      2.69165350
  H      1.73251389     -4.40667200      3.34783198
  H      0.57207416     -3.64006582      4.43250384
  H      1.29839729     -2.70673961      3.11959242
  H     -2.26978505     -3.26955530      2.05720060
  H     -1.07964558     -2.03804804      2.49442508
  H     -1.73847269     -3.10244284      3.73465535

======= END OF MOLDEN-FORMATTED INPUT FILE =======


        *************************************************************
        *                                                           *
        *  Thank you very much for using Q-Chem.  Have a nice day.  *
        *                                                           *
        *************************************************************


0 sent ACK to 0 
now end server 0 ... 
