Process 0 of 1 is on gollum135.lsa.umich.edu - thread support 0
initial socket setup ...start
initial socket setup ...done 
now start server 0 ... 
                  Welcome to Q-Chem
     A Quantum Leap Into The Future Of Chemistry


 Q-Chem 5.2 (devel), Q-Chem, Inc., Pleasanton, CA (2019)

 Yihan Shao,  Zhengting Gan,  E. Epifanovsky,  A. T. B. Gilbert,  M. Wormit,  
 J. Kussmann,  A. W. Lange,  A. Behn,  Jia Deng,  Xintian Feng,  D. Ghosh,  
 M. Goldey,  P. R. Horn,  L. D. Jacobson,  I. Kaliman,  T. Kus,  A. Landau,  
 Jie Liu,  E. I. Proynov,  R. M. Richard,  R. P. Steele,  E. J. Sundstrom,  
 H. L. Woodcock III,  P. M. Zimmerman,  D. Zuev,  B. Albrecht,  E. Alguire,  
 S. A. Baeppler,  D. Barton,  Z. Benda,  Y. A. Bernard,  E. J. Berquist,  
 K. B. Bravaya,  H. Burton,  D. Casanova,  Chun-Min Chang,  Yunqing Chen,  
 A. Chien,  K. D. Closser,  M. P. Coons,  S. Coriani,  S. Dasgupta,  
 A. L. Dempwolff,  M. Diedenhofen,  Hainam Do,  R. G. Edgar,  Po-Tung Fang,  
 S. Faraji,  S. Fatehi,  Qingguo Feng,  K. D. Fenk,  J. Fosso-Tande,  
 J. Gayvert,  Qinghui Ge,  A. Ghysels,  G. Gidofalvi,  J. Gomes,  
 J. Gonthier,  A. Gunina,  D. Hait,  M. W. D. Hanson-Heine,  
 P. H. P. Harbach,  A. W. Hauser,  J. E. Herr,  E. G. Hohenstein,  
 Z. C. Holden,  Kerwin Hui,  B. C. Huynh,  T.-C. Jagau,  Hyunjun Ji,  
 B. Kaduk,  K. Khistyaev,  Jaehoon Kim,  P. Klunzinger,  K. Koh,  
 D. Kosenkov,  L. Koulias,  T. Kowalczyk,  C. M. Krauter,  A. Kunitsa,  
 Ka Un Lao,  A. Laurent,  K. V. Lawler,  Joonho Lee,  D. Lefrancois,  
 S. Lehtola,  D. S. Levine,  Yi-Pei Li,  You-Sheng Lin,  Fenglai Liu,  
 E. Livshits,  A. Luenser,  P. Manohar,  E. Mansoor,  S. F. Manzer,  
 Shan-Ping Mao,  Yuezhi Mao,  N. Mardirossian,  A. V. Marenich,  
 T. Markovich,  L. A. Martinez-Martinez,  S. A. Maurer,  N. J. Mayhall,  
 S. C. McKenzie,  J.-M. Mewes,  A. F. Morrison,  J. W. Mullinax,  K. Nanda,  
 T. S. Nguyen-Beck,  R. Olivares-Amaya,  J. A. Parkhill,  T. M. Perrine,  
 F. Plasser,  P. Pokhilko,  S. Prager,  A. Prociuk,  E. Ramos,  D. R. Rehn,  
 F. Rob,  M. Schneider,  N. Sergueev,  S. M. Sharada,  S. Sharma,  
 D. W. Small,  T. Stauch,  T. Stein,  Yu-Chuan Su,  A. J. W. Thom,  
 A. Tkatchenko,  T. Tsuchimochi,  N. M. Tubman,  L. Vogt,  M. L. Vidal,  
 O. Vydrov,  M. A. Watson,  J. Wenzel,  M. de Wergifosse,  T. A. Wesolowski,  
 A. White,  J. Witte,  A. Yamada,  Jun Yang,  K. Yao,  S. Yeganeh,  
 S. R. Yost,  Zhi-Qiang You,  A. Zech,  Igor Ying Zhang,  Xing Zhang,  
 Yan Zhao,  Ying Zhu,  B. R. Brooks,  G. K. L. Chan,  C. J. Cramer,  
 M. S. Gordon,  W. J. Hehre,  A. Klamt,  M. W. Schmidt,  C. D. Sherrill,  
 D. G. Truhlar,  A. Aspuru-Guzik,  R. Baer,  A. T. Bell,  N. A. Besley,  
 Jeng-Da Chai,  A. E. DePrince, III,  R. A. DiStasio Jr.,  A. Dreuw,  
 B. D. Dunietz,  T. R. Furlani,  Chao-Ping Hsu,  Yousung Jung,  Jing Kong,  
 D. S. Lambrecht,  WanZhen Liang,  C. Ochsenfeld,  V. A. Rassolov,  
 L. V. Slipchenko,  J. E. Subotnik,  T. Van Voorhis,  J. M. Herbert,  
 A. I. Krylov,  P. M. W. Gill,  M. Head-Gordon

 Contributors to earlier versions of Q-Chem not listed above: 
 R. D. Adamson,  B. Austin,  J. Baker,  G. J. O. Beran,  K. Brandhorst,  
 S. T. Brown,  E. F. C. Byrd,  A. K. Chakraborty,  C.-L. Cheng,  
 Siu Hung Chien,  D. M. Chipman,  D. L. Crittenden,  H. Dachsel,  
 R. J. Doerksen,  A. D. Dutoi,  L. Fusti-Molnar,  W. A. Goddard III,  
 A. Golubeva-Zadorozhnaya,  S. R. Gwaltney,  G. Hawkins,  A. Heyden,  
 S. Hirata,  G. Kedziora,  F. J. Keil,  C. Kelley,  Jihan Kim,  R. A. King,  
 R. Z. Khaliullin,  P. P. Korambath,  W. Kurlancheek,  A. M. Lee,  M. S. Lee,  
 S. V. Levchenko,  Ching Yeh Lin,  D. Liotard,  R. C. Lochan,  I. Lotan,  
 P. E. Maslen,  N. Nair,  D. P. O'Neill,  D. Neuhauser,  E. Neuscamman,  
 C. M. Oana,  R. Olson,  B. Peters,  R. Peverati,  P. A. Pieniazek,  
 Y. M. Rhee,  J. Ritchie,  M. A. Rohrdanz,  E. Rosta,  N. J. Russ,  
 H. F. Schaefer III,  N. E. Schultz,  N. Shenvi,  A. C. Simmonett,  A. Sodt,  
 D. Stuck,  K. S. Thanthiriwatte,  V. Vanovschi,  Tao Wang,  A. Warshel,  
 C. F. Williams,  Q. Wu,  X. Xu,  W. Zhang

 Please cite Q-Chem as follows:
 Y. Shao et al., Mol. Phys. 113, 184-215 (2015)
 DOI: 10.1080/00268976.2014.952696

 Q-Chem 5.2.0 for Intel X86 EM64T Linux

 Parts of Q-Chem use Armadillo 8.300.2 (Tropical Shenanigans).
 http://arma.sourceforge.net/

 Q-Chem begins on Mon Dec  9 15:28:11 2019  

Host: gollum135.lsa.umich.edu
0

     Scratch files written to /scratch/craldaz/830062/qchem22454//
 Parallel job on  1  processors

Checking the input file for inconsistencies... 	...done.

--------------------------------------------------------------
User input:
--------------------------------------------------------------
 $rem
 JOBTYPE OPT
 EXCHANGE B3LYP
 SCF_ALGORITHM diis
 SCF_MAX_CYCLES 300
 BASIS 6-31G**
 GEOM_OPT_MAX_CYCLES 300
 scf_convergence 8
 SYM_IGNORE TRUE
 SYMMETRY   FALSE

molden_format true
 $end

$molecule
0 1
C         -1.66153       -0.19365        0.07523
C         -1.29521       -1.53051        0.10863
C          0.18947       -1.63223        0.23386
C          0.64028       -0.20209        0.27731
C         -0.47114        0.62417        0.18145
C         -2.99114        0.21204       -0.06037
C         -3.97713       -0.77233       -0.19935
C         -3.61824       -2.12953       -0.22737
C         -2.27502       -2.51213       -0.08966
H         -3.25942        1.26004       -0.07195
H         -5.01442       -0.48536       -0.31298
H         -4.38032       -2.88424       -0.37273
H         -2.02559       -3.54987       -0.17481
C         -0.37396        2.01661        0.22238
C          1.89910        0.37732        0.51845
C          0.88929        2.59203        0.39989
C          2.01914        1.77499        0.56056
H          2.78082       -0.21159        0.69406
H          2.98766        2.22633        0.73307
H         -1.25200        2.64270        0.13582
H          0.99102        3.66868        0.44162
C          0.96006       -2.76387        0.35904
C          0.49638       -4.11958        0.89365
C          2.43194       -2.91166        0.17613
C          1.74974       -4.62688        1.65397
C          2.86807       -3.96283        0.95432
H          1.78290       -5.73729        1.61031
H          1.81922       -4.29135        2.71235
C          4.21446       -4.30372        1.06080
C          5.15270       -3.60307        0.30116
C          3.35449       -2.24784       -0.67834
C          4.73437       -2.59618       -0.58813
H          4.52918       -5.11068        1.71012
H          6.19860       -3.87641        0.37510
C          5.67651       -1.95037       -1.40391
C          2.96379       -1.30020       -1.64599
C          3.91396       -0.67333       -2.45529
C          5.26602       -0.98862       -2.32726
H          1.92745       -1.04171       -1.79463
H          3.59898        0.05825       -3.18824
H          6.72888       -2.20019       -1.33794
H          5.99647       -0.49940       -2.95863
H          0.35485       -4.78958        0.01487
C         -0.65771       -4.16897        1.88291
C         -1.68455       -5.11970        1.72937
C         -0.70244       -3.29192        2.98482
C         -2.74005       -5.17657        2.64425
C         -1.76028       -3.35282        3.89609
H          0.07907       -2.55719        3.13355
C         -2.77909       -4.29269        3.72502
H         -1.78943       -2.67119        4.73626
H         -3.59708       -4.33856        4.43221
H         -1.66780       -5.81492        0.89924
H         -3.52769       -5.90761        2.51567
$end
--------------------------------------------------------------
 ----------------------------------------------------------------
             Standard Nuclear Orientation (Angstroms)
    I     Atom           X                Y                Z
 ----------------------------------------------------------------
    1      C      -1.6615300000    -0.1936500000     0.0752300000
    2      C      -1.2952100000    -1.5305100000     0.1086300000
    3      C       0.1894700000    -1.6322300000     0.2338600000
    4      C       0.6402800000    -0.2020900000     0.2773100000
    5      C      -0.4711400000     0.6241700000     0.1814500000
    6      C      -2.9911400000     0.2120400000    -0.0603700000
    7      C      -3.9771300000    -0.7723300000    -0.1993500000
    8      C      -3.6182400000    -2.1295300000    -0.2273700000
    9      C      -2.2750200000    -2.5121300000    -0.0896600000
   10      H      -3.2594200000     1.2600400000    -0.0719500000
   11      H      -5.0144200000    -0.4853600000    -0.3129800000
   12      H      -4.3803200000    -2.8842400000    -0.3727300000
   13      H      -2.0255900000    -3.5498700000    -0.1748100000
   14      C      -0.3739600000     2.0166100000     0.2223800000
   15      C       1.8991000000     0.3773200000     0.5184500000
   16      C       0.8892900000     2.5920300000     0.3998900000
   17      C       2.0191400000     1.7749900000     0.5605600000
   18      H       2.7808200000    -0.2115900000     0.6940600000
   19      H       2.9876600000     2.2263300000     0.7330700000
   20      H      -1.2520000000     2.6427000000     0.1358200000
   21      H       0.9910200000     3.6686800000     0.4416200000
   22      C       0.9600600000    -2.7638700000     0.3590400000
   23      C       0.4963800000    -4.1195800000     0.8936500000
   24      C       2.4319400000    -2.9116600000     0.1761300000
   25      C       1.7497400000    -4.6268800000     1.6539700000
   26      C       2.8680700000    -3.9628300000     0.9543200000
   27      H       1.7829000000    -5.7372900000     1.6103100000
   28      H       1.8192200000    -4.2913500000     2.7123500000
   29      C       4.2144600000    -4.3037200000     1.0608000000
   30      C       5.1527000000    -3.6030700000     0.3011600000
   31      C       3.3544900000    -2.2478400000    -0.6783400000
   32      C       4.7343700000    -2.5961800000    -0.5881300000
   33      H       4.5291800000    -5.1106800000     1.7101200000
   34      H       6.1986000000    -3.8764100000     0.3751000000
   35      C       5.6765100000    -1.9503700000    -1.4039100000
   36      C       2.9637900000    -1.3002000000    -1.6459900000
   37      C       3.9139600000    -0.6733300000    -2.4552900000
   38      C       5.2660200000    -0.9886200000    -2.3272600000
   39      H       1.9274500000    -1.0417100000    -1.7946300000
   40      H       3.5989800000     0.0582500000    -3.1882400000
   41      H       6.7288800000    -2.2001900000    -1.3379400000
   42      H       5.9964700000    -0.4994000000    -2.9586300000
   43      H       0.3548500000    -4.7895800000     0.0148700000
   44      C      -0.6577100000    -4.1689700000     1.8829100000
   45      C      -1.6845500000    -5.1197000000     1.7293700000
   46      C      -0.7024400000    -3.2919200000     2.9848200000
   47      C      -2.7400500000    -5.1765700000     2.6442500000
   48      C      -1.7602800000    -3.3528200000     3.8960900000
   49      H       0.0790700000    -2.5571900000     3.1335500000
   50      C      -2.7790900000    -4.2926900000     3.7250200000
   51      H      -1.7894300000    -2.6711900000     4.7362600000
   52      H      -3.5970800000    -4.3385600000     4.4322100000
   53      H      -1.6678000000    -5.8149200000     0.8992400000
   54      H      -3.5276900000    -5.9076100000     2.5156700000
 ----------------------------------------------------------------
 Nuclear Repulsion Energy =  2966.0067596411 hartrees
 There are      107 alpha and      107 beta electrons
 Requested basis set is 6-31G(d,p)
 There are 194 shells and 590 basis functions

 Total QAlloc Memory Limit   2000 MB
 Mega-Array Size       188 MB
 MEM_STATIC part       192 MB
 A cutoff of  1.0D-11 yielded   9757 shell pairs
 There are     97838 function pairs
 
 -------------------------------------------------------
 OpenMP Integral Computing Module                       
 Release: version 1.0, May 2013, Q-Chem Inc. Pittsburgh 
 -------------------------------------------------------
 Integral Job Info:
 Integral job number is                      11
 Integral operator is                         1
 short-range coefficients                     0
 long-range coefficients              100000000
 Omega coefficients                           0
 if combine SR and LR in K                    0
 Integral screening is                        0
 Integral computing path is                   2
 max size of driver memory is            800000
 size of driver memory is                593474
 size of scratch memory is              2361544
 max col of scratch BK array               1296
 max len of scratch array in speh3          155
 max len of scratch index in speh4           18
 max int batch size is                      520
 min int batch size is                       52
 fixed nKL is                                52
 max L of basis functions is                  2
 order of int derivative is                   0
 number of shells is                        194
 number of basis is                         590
 number of cartesian basis is               590
 number of contracted shell pairs          9757
 number of primitive shell pairs          28924
 maxK2 (contraction) of shell pair           36
 max number of K2 of shell pair               1
 max number of CS2 of shell pair           1004
 max number of PS2 of shell pair           5490
 mem total for path MDJ                  713564
 -------------------------------------------------------
 Smallest overlap matrix eigenvalue = 2.13E-04

 Scale SEOQF with 1.000000e-02/1.000000e-02/1.000000e-01

 Standard Electronic Orientation quadrupole field applied
 Nucleus-field energy     =    -0.0000000392 hartrees
 Guess from superposition of atomic densities
 Warning:  Energy on first SCF cycle will be non-variational
 SAD guess density has 214.000001 electrons

 -----------------------------------------------------------------------
  General SCF calculation program by
  Eric Jon Sundstrom, Paul Horn, Yuezhi Mao, Dmitri Zuev, Alec White,
  David Stuck, Shaama M.S., Shane Yost, Joonho Lee, David Small,
  Daniel Levine, Susi Lehtola, Hugh Burton, Evgeny Epifanovsky
 -----------------------------------------------------------------------
 Exchange:     0.2000 Hartree-Fock + 0.0800 Slater + 0.7200 B88
 Correlation:  0.1900 VWN1RPA + 0.8100 LYP
 Using SG-1 standard quadrature grid
 using 14 threads for integral computing
 -------------------------------------------------------
 OpenMP Integral computing Module                
 Release: version 1.0, May 2013, Q-Chem Inc. Pittsburgh 
 -------------------------------------------------------
 -------------------------------------------------------
 OpenMP BLAS3 based DFT computing Module                
 Release: version 1.0, May 2013, Q-Chem Inc. Pittsburgh 
 -------------------------------------------------------
 A restricted SCF calculation will be
 performed using DIIS
 SCF converges when DIIS error is below 1.0e-08
 ---------------------------------------
  Cycle       Energy         DIIS error
 ---------------------------------------
    1   -1240.9471153579      3.18e-02  
    2   -1232.3275702096      2.69e-03  
    3   -1232.3531834716      2.67e-03  
    4   -1232.6655922008      7.35e-04  
    5   -1232.6875348215      3.32e-04  
    6   -1232.6928051342      9.81e-05  
    7   -1232.6932056300      3.83e-05  
    8   -1232.6932703949      1.27e-05  
    9   -1232.6932777061      2.71e-06  
   10   -1232.6932779834      1.33e-06  
   11   -1232.6932780588      5.06e-07  
   12   -1232.6932780710      1.46e-07  
   13   -1232.6932780719      6.28e-08  
   14   -1232.6932780721      1.56e-08  
   15   -1232.6932780721      6.18e-09  Convergence criterion met
 ---------------------------------------
 SCF time:   CPU 1133.31s  wall 85.00s 
 SCF   energy in the final basis set =    -1232.6932780721
 Total energy in the final basis set =    -1232.6932780721
 
 --------------------------------------------------------------
 
                    Orbital Energies (a.u.)
 --------------------------------------------------------------
 
 Alpha MOs
 -- Occupied --
-10.2094 -10.2075 -10.1984 -10.1982 -10.1973 -10.1968 -10.1962 -10.1957
-10.1947 -10.1936 -10.1918 -10.1912 -10.1892 -10.1886 -10.1867 -10.1861
-10.1860 -10.1855 -10.1843 -10.1842 -10.1838 -10.1820 -10.1817 -10.1814
-10.1805 -10.1803 -10.1801 -10.1795 -10.1793 -10.1788 -10.1778 -10.1769
 -0.8943  -0.8798  -0.8593  -0.8420  -0.8315  -0.8089  -0.7896  -0.7733
 -0.7614  -0.7486  -0.7402  -0.7365  -0.7299  -0.7113  -0.7036  -0.6971
 -0.6586  -0.6290  -0.6259  -0.6108  -0.6021  -0.5911  -0.5878  -0.5771
 -0.5732  -0.5615  -0.5393  -0.5198  -0.5081  -0.5056  -0.4897  -0.4825
 -0.4796  -0.4703  -0.4641  -0.4522  -0.4484  -0.4415  -0.4342  -0.4313
 -0.4308  -0.4235  -0.4156  -0.4144  -0.4111  -0.4059  -0.4028  -0.3989
 -0.3938  -0.3889  -0.3825  -0.3786  -0.3711  -0.3699  -0.3523  -0.3479
 -0.3444  -0.3403  -0.3382  -0.3368  -0.3336  -0.3259  -0.3237  -0.3215
 -0.3173  -0.2990  -0.2816  -0.2679  -0.2462  -0.2428  -0.2420  -0.2303
 -0.2210  -0.2052  -0.1913
 -- Virtual --
 -0.0695  -0.0291  -0.0134  -0.0087   0.0008   0.0020   0.0169   0.0351
  0.0538   0.0732   0.0843   0.0999   0.1014   0.1076   0.1107   0.1153
  0.1212   0.1245   0.1403   0.1442   0.1523   0.1567   0.1605   0.1668
  0.1698   0.1726   0.1751   0.1786   0.1834   0.1869   0.1916   0.1942
  0.1982   0.2009   0.2098   0.2157   0.2201   0.2299   0.2363   0.2454
  0.2497   0.2538   0.2657   0.2724   0.2740   0.2859   0.2922   0.3041
  0.3082   0.3095   0.3130   0.3176   0.3184   0.3296   0.3370   0.3461
  0.3507   0.3644   0.3809   0.3840   0.3952   0.4034   0.4124   0.4339
  0.4498   0.4630   0.4742   0.4809   0.4911   0.5065   0.5139   0.5156
  0.5207   0.5268   0.5290   0.5362   0.5379   0.5404   0.5418   0.5469
  0.5528   0.5549   0.5582   0.5626   0.5644   0.5691   0.5736   0.5756
  0.5775   0.5792   0.5844   0.5871   0.5937   0.5955   0.5978   0.6022
  0.6031   0.6064   0.6074   0.6094   0.6111   0.6136   0.6172   0.6173
  0.6204   0.6213   0.6247   0.6291   0.6342   0.6359   0.6443   0.6487
  0.6536   0.6593   0.6602   0.6691   0.6726   0.6765   0.6822   0.6918
  0.7005   0.7090   0.7119   0.7163   0.7220   0.7505   0.7571   0.7662
  0.7731   0.7878   0.7974   0.8000   0.8027   0.8040   0.8134   0.8154
  0.8183   0.8236   0.8262   0.8295   0.8301   0.8343   0.8357   0.8398
  0.8510   0.8541   0.8572   0.8624   0.8629   0.8685   0.8745   0.8780
  0.8843   0.8944   0.9050   0.9112   0.9148   0.9176   0.9257   0.9299
  0.9352   0.9401   0.9485   0.9594   0.9675   0.9750   0.9794   0.9908
  0.9932   1.0041   1.0063   1.0097   1.0244   1.0275   1.0449   1.0480
  1.0613   1.0632   1.0781   1.0811   1.0862   1.0985   1.1035   1.1206
  1.1267   1.1333   1.1446   1.1469   1.1649   1.1669   1.1724   1.1841
  1.1896   1.2007   1.2061   1.2264   1.2450   1.2484   1.2595   1.2618
  1.2752   1.2798   1.2858   1.2935   1.2983   1.3050   1.3227   1.3312
  1.3453   1.3501   1.3569   1.3706   1.3750   1.3780   1.3864   1.3908
  1.3958   1.4051   1.4071   1.4141   1.4193   1.4222   1.4240   1.4259
  1.4329   1.4351   1.4360   1.4501   1.4509   1.4580   1.4704   1.4771
  1.4905   1.5016   1.5132   1.5202   1.5545   1.5768   1.5835   1.5875
  1.6093   1.6255   1.6459   1.6665   1.6872   1.6925   1.7247   1.7409
  1.7544   1.7555   1.7625   1.7739   1.7762   1.7814   1.7933   1.7946
  1.7978   1.8050   1.8126   1.8191   1.8206   1.8410   1.8479   1.8582
  1.8593   1.8772   1.8809   1.8894   1.8917   1.8918   1.9002   1.9084
  1.9156   1.9237   1.9253   1.9268   1.9376   1.9434   1.9456   1.9510
  1.9566   1.9626   1.9672   1.9694   1.9731   1.9813   1.9868   1.9944
  2.0021   2.0058   2.0102   2.0133   2.0138   2.0202   2.0278   2.0314
  2.0434   2.0489   2.0614   2.0714   2.0824   2.0915   2.0981   2.1104
  2.1228   2.1392   2.1424   2.1523   2.1668   2.1763   2.1951   2.2033
  2.2114   2.2206   2.2459   2.2534   2.2566   2.2645   2.2745   2.2815
  2.2849   2.2939   2.2968   2.3041   2.3144   2.3176   2.3266   2.3367
  2.3397   2.3483   2.3556   2.3669   2.3719   2.3851   2.3879   2.3907
  2.3943   2.4022   2.4040   2.4048   2.4101   2.4135   2.4204   2.4253
  2.4397   2.4490   2.4513   2.4562   2.4617   2.4654   2.4714   2.4794
  2.4818   2.4866   2.4922   2.5019   2.5056   2.5115   2.5211   2.5260
  2.5307   2.5426   2.5477   2.5554   2.5570   2.5669   2.5717   2.5753
  2.5854   2.5948   2.6035   2.6055   2.6066   2.6107   2.6194   2.6250
  2.6294   2.6423   2.6490   2.6582   2.6714   2.6760   2.6836   2.6922
  2.7011   2.7076   2.7151   2.7186   2.7237   2.7380   2.7436   2.7602
  2.7614   2.7676   2.7772   2.7845   2.7926   2.8034   2.8126   2.8157
  2.8456   2.8644   2.8744   2.8847   2.8964   2.9133   2.9313   2.9380
  2.9590   2.9990   3.0126   3.0268   3.0376   3.0562   3.0719   3.0963
  3.1391   3.1562   3.1908   3.1994   3.2051   3.2272   3.2358   3.2487
  3.2511   3.2559   3.2611   3.2635   3.2682   3.2809   3.2894   3.3173
  3.3432   3.3516   3.3550   3.3597   3.3940   3.3966   3.4159   3.4448
  3.4521   3.4714   3.4973   3.5040   3.5174   3.5424   3.7419   3.8330
  3.8728   3.8994   3.9165   4.1135   4.1267   4.1309   4.1404   4.1461
  4.1495   4.1551   4.1633   4.1826   4.1946   4.1989   4.2073   4.2263
  4.2577   4.2863   4.3019   4.3960   4.4049   4.4178   4.4480   4.4524
  4.4812   4.5095   4.5296   4.5581   4.6026   4.6774   4.7765   4.8592
  4.8940   4.9312   4.9664
 --------------------------------------------------------------
 
          Ground-State Mulliken Net Atomic Charges

     Atom                 Charge (a.u.)
  ----------------------------------------
      1 C                     0.029322
      2 C                     0.066752
      3 C                    -0.014253
      4 C                     0.042667
      5 C                     0.031967
      6 C                    -0.118802
      7 C                    -0.097294
      8 C                    -0.096399
      9 C                    -0.107192
     10 H                     0.080119
     11 H                     0.079244
     12 H                     0.078515
     13 H                     0.076468
     14 C                    -0.119403
     15 C                    -0.131554
     16 C                    -0.098761
     17 C                    -0.093626
     18 H                     0.098472
     19 H                     0.080951
     20 H                     0.080649
     21 H                     0.079223
     22 C                    -0.021603
     23 C                    -0.200515
     24 C                     0.038029
     25 C                    -0.235028
     26 C                     0.064351
     27 H                     0.110224
     28 H                     0.130225
     29 C                    -0.135698
     30 C                    -0.135319
     31 C                     0.051084
     32 C                     0.124203
     33 H                     0.083465
     34 H                     0.088498
     35 C                    -0.147718
     36 C                    -0.128914
     37 C                    -0.091867
     38 C                    -0.087025
     39 H                     0.111146
     40 H                     0.090308
     41 H                     0.086045
     42 H                     0.084085
     43 H                     0.115050
     44 C                     0.138486
     45 C                    -0.140396
     46 C                    -0.110000
     47 C                    -0.080244
     48 C                    -0.083968
     49 H                     0.090291
     50 C                    -0.084467
     51 H                     0.086914
     52 H                     0.082373
     53 H                     0.078205
     54 H                     0.082716
  ----------------------------------------
  Sum of atomic charges =    -0.000000

 -----------------------------------------------------------------
                    Cartesian Multipole Moments
 -----------------------------------------------------------------
    Charge (ESU x 10^10)
                -0.0000
    Dipole Moment (Debye)
         X       1.0593      Y      -1.2156      Z       0.3061
       Tot       1.6412
    Quadrupole Moments (Debye-Ang)
        XX    -163.0142     XY      -2.2348     YY    -165.4317
        XZ      -1.1106     YZ      -3.7856     ZZ    -180.8397
    Octopole Moments (Debye-Ang^2)
       XXX    -313.1982    XXY     308.4967    XYY    -126.5727
       YYY    1011.7854    XXZ     -88.4481    XYZ     -12.3708
       YYZ     -76.9248    XZZ    -123.3285    YZZ     363.3179
       ZZZ    -251.5856
    Hexadecapole Moments (Debye-Ang^3)
      XXXX   -8438.0571   XXXY     499.3128   XXYY   -2841.4945
      XYYY     699.3490   YYYY   -9008.0281   XXXZ     803.8336
      XXYZ     320.0904   XYYZ     380.4031   YYYZ    1345.4005
      XXZZ   -1967.7965   XYZZ     275.0412   YYZZ   -2145.2944
      XZZZ     831.4623   YZZZ    1315.1942   ZZZZ   -2830.0866
 -----------------------------------------------------------------
 Calculating analytic gradient of the SCF energy
 Gradient of SCF Energy
            1           2           3           4           5           6
    1   0.0145227  -0.0074259  -0.0009838  -0.0224412   0.0124798   0.0034007
    2  -0.0198756   0.0268096  -0.0048088   0.0147333  -0.0199118   0.0107368
    3   0.0007351  -0.0003974   0.0009261  -0.0026411   0.0013082   0.0013278
            7           8           9          10          11          12
    1  -0.0060188  -0.0080393   0.0089855   0.0001125   0.0027769   0.0012805
    2   0.0003451  -0.0055139  -0.0090016  -0.0027521  -0.0006369   0.0019971
    3  -0.0006707  -0.0001373   0.0047000   0.0002014  -0.0001349   0.0001239
           13          14          15          16          17          18
    1  -0.0022665  -0.0109195   0.0045610   0.0018163   0.0088232  -0.0022273
    2   0.0058684   0.0001247  -0.0099976   0.0048819   0.0053028   0.0039416
    3  -0.0003981  -0.0021236  -0.0016046   0.0001448  -0.0001690   0.0000345
           19          20          21          22          23          24
    1  -0.0023976   0.0026062  -0.0004593  -0.0045682   0.0039200   0.0146722
    2  -0.0003518  -0.0010085  -0.0028293  -0.0098565   0.0005952  -0.0054559
    3  -0.0004261   0.0000914   0.0003820   0.0023945  -0.0097758  -0.0029043
           25          26          27          28          29          30
    1  -0.0048135  -0.0090254  -0.0035755   0.0122120  -0.0216637   0.0129326
    2   0.0137808   0.0067596  -0.0102459   0.0075216  -0.0066778   0.0189290
    3  -0.0046027   0.0027591  -0.0055391   0.0072737   0.0117307  -0.0187128
           31          32          33          34          35          36
    1   0.0087351  -0.0072167  -0.0006302  -0.0025877   0.0009448  -0.0121982
    2  -0.0062244   0.0016351   0.0020663  -0.0021066  -0.0192202  -0.0108480
    3   0.0061362  -0.0016827  -0.0016535   0.0014752   0.0198788   0.0172308
           37          38          39          40          41          42
    1   0.0167438  -0.0144336   0.0026355   0.0016896  -0.0010168  -0.0022817
    2   0.0066955   0.0112710   0.0021782  -0.0011423   0.0025092  -0.0011586
    3  -0.0082568  -0.0097465  -0.0023338   0.0017091  -0.0022984   0.0011203
           43          44          45          46          47          48
    1   0.0045268   0.0099745  -0.0022881   0.0057486  -0.0041801  -0.0026257
    2  -0.0021270   0.0004341  -0.0056218   0.0066617  -0.0028443   0.0037858
    3  -0.0109227   0.0062466  -0.0098284   0.0012467  -0.0019939   0.0055018
           49          50          51          52          53          54
    1  -0.0014153  -0.0007685  -0.0003155   0.0022326  -0.0014608   0.0019109
    2  -0.0013885   0.0009661  -0.0018955   0.0000200   0.0009120   0.0020384
    3   0.0017690   0.0021295  -0.0018326  -0.0016268   0.0033351   0.0005011
 Max gradient component =       2.681E-02
 RMS gradient           =       7.642E-03
 Gradient time:  CPU 266.89 s  wall 21.77 s
 Geometry Optimization Parameters
   NAtoms,    NIC,     NZ,  NCons,   NDum,   NFix, NCnnct, MaxDiis
       54     433       0       0       0       0       0       0


** GEOMETRY OPTIMIZATION IN DELOCALIZED INTERNAL COORDINATES **
   Searching for a Minimum

   Optimization Cycle:   1

                       Coordinates (Angstroms)
     ATOM                X               Y               Z
      1  C        -1.6615300000   -0.1936500000    0.0752300000
      2  C        -1.2952100000   -1.5305100000    0.1086300000
      3  C         0.1894700000   -1.6322300000    0.2338600000
      4  C         0.6402800000   -0.2020900000    0.2773100000
      5  C        -0.4711400000    0.6241700000    0.1814500000
      6  C        -2.9911400000    0.2120400000   -0.0603700000
      7  C        -3.9771300000   -0.7723300000   -0.1993500000
      8  C        -3.6182400000   -2.1295300000   -0.2273700000
      9  C        -2.2750200000   -2.5121300000   -0.0896600000
     10  H        -3.2594200000    1.2600400000   -0.0719500000
     11  H        -5.0144200000   -0.4853600000   -0.3129800000
     12  H        -4.3803200000   -2.8842400000   -0.3727300000
     13  H        -2.0255900000   -3.5498700000   -0.1748100000
     14  C        -0.3739600000    2.0166100000    0.2223800000
     15  C         1.8991000000    0.3773200000    0.5184500000
     16  C         0.8892900000    2.5920300000    0.3998900000
     17  C         2.0191400000    1.7749900000    0.5605600000
     18  H         2.7808200000   -0.2115900000    0.6940600000
     19  H         2.9876600000    2.2263300000    0.7330700000
     20  H        -1.2520000000    2.6427000000    0.1358200000
     21  H         0.9910200000    3.6686800000    0.4416200000
     22  C         0.9600600000   -2.7638700000    0.3590400000
     23  C         0.4963800000   -4.1195800000    0.8936500000
     24  C         2.4319400000   -2.9116600000    0.1761300000
     25  C         1.7497400000   -4.6268800000    1.6539700000
     26  C         2.8680700000   -3.9628300000    0.9543200000
     27  H         1.7829000000   -5.7372900000    1.6103100000
     28  H         1.8192200000   -4.2913500000    2.7123500000
     29  C         4.2144600000   -4.3037200000    1.0608000000
     30  C         5.1527000000   -3.6030700000    0.3011600000
     31  C         3.3544900000   -2.2478400000   -0.6783400000
     32  C         4.7343700000   -2.5961800000   -0.5881300000
     33  H         4.5291800000   -5.1106800000    1.7101200000
     34  H         6.1986000000   -3.8764100000    0.3751000000
     35  C         5.6765100000   -1.9503700000   -1.4039100000
     36  C         2.9637900000   -1.3002000000   -1.6459900000
     37  C         3.9139600000   -0.6733300000   -2.4552900000
     38  C         5.2660200000   -0.9886200000   -2.3272600000
     39  H         1.9274500000   -1.0417100000   -1.7946300000
     40  H         3.5989800000    0.0582500000   -3.1882400000
     41  H         6.7288800000   -2.2001900000   -1.3379400000
     42  H         5.9964700000   -0.4994000000   -2.9586300000
     43  H         0.3548500000   -4.7895800000    0.0148700000
     44  C        -0.6577100000   -4.1689700000    1.8829100000
     45  C        -1.6845500000   -5.1197000000    1.7293700000
     46  C        -0.7024400000   -3.2919200000    2.9848200000
     47  C        -2.7400500000   -5.1765700000    2.6442500000
     48  C        -1.7602800000   -3.3528200000    3.8960900000
     49  H         0.0790700000   -2.5571900000    3.1335500000
     50  C        -2.7790900000   -4.2926900000    3.7250200000
     51  H        -1.7894300000   -2.6711900000    4.7362600000
     52  H        -3.5970800000   -4.3385600000    4.4322100000
     53  H        -1.6678000000   -5.8149200000    0.8992400000
     54  H        -3.5276900000   -5.9076100000    2.5156700000
   Point Group: c1    Number of degrees of freedom:   156


   Energy is  -1232.693278072


 Attempting to generate delocalized internal coordinates
 Initial Hessian constructed with Jon Baker's OPTIMIZE code

156 Hessian modes will be used to form the next step
  Hessian Eigenvalues:
     0.006420    0.006518    0.011739    0.012467    0.015329    0.017041
     0.017383    0.017997    0.018498    0.019155    0.019521    0.020185
     0.020274    0.020555    0.020776    0.020890    0.021469    0.021718
     0.021870    0.021910    0.021924    0.021926    0.021947    0.021957
     0.022046    0.022053    0.022130    0.022172    0.022182    0.022235
     0.022235    0.022442    0.022449    0.022454    0.022467    0.022506
     0.022627    0.022694    0.022751    0.022787    0.022810    0.022846
     0.022969    0.022997    0.023125    0.023158    0.025740    0.042007
     0.044817    0.052057    0.056626    0.065179    0.085279    0.086908
     0.128280    0.159822    0.159877    0.159922    0.159930    0.159959
     0.159965    0.159977    0.159979    0.159981    0.159984    0.159985
     0.159985    0.159991    0.159996    0.159999    0.159999    0.160000
     0.160000    0.160000    0.210621    0.219958    0.219966    0.219989
     0.219991    0.220000    0.224194    0.225809    0.225873    0.227189
     0.234685    0.236125    0.243299    0.243437    0.243968    0.246035
     0.246484    0.248300    0.248743    0.248960    0.249155    0.249894
     0.267182    0.282971    0.302844    0.313743    0.319070    0.320075
     0.321713    0.323405    0.324141    0.341110    0.355598    0.355683
     0.356432    0.356443    0.356916    0.357033    0.357097    0.357109
     0.357118    0.357189    0.357203    0.357203    0.357238    0.357255
     0.357697    0.357710    0.361903    0.366364    0.371434    0.373605
     0.373834    0.395802    0.399190    0.411511    0.412119    0.412579
     0.412920    0.414013    0.415157    0.426547    0.436832    0.445868
     0.446708    0.448697    0.451175    0.451216    0.453756    0.453815
     0.454000    0.455179    0.455495    0.456473    0.457864    0.458984
     0.459926    0.461423    0.464322    0.466502    0.468615    0.500643

 Minimum search - taking simple RFO step
 Searching for Lamda that Minimizes Along All modes
 Value Taken    Lamda =  -0.02618283
 Calculated Step too Large.  Step scaled by  0.543447
 Step Taken.  Stepsize is  0.300000

                             Maximum     Tolerance    Cnvgd?
         Gradient           0.018716      0.000300      NO
         Displacement       0.178993      0.001200      NO
         Energy change     *********      0.000001      NO


 New Cartesian Coordinates Obtained by Inverse Iteration

 Displacement from previous Coordinates is:  2.583131
 ----------------------------------------------------------------
             Standard Nuclear Orientation (Angstroms)
    I     Atom           X                Y                Z
 ----------------------------------------------------------------
    1      C      -1.6611034474    -0.1618539115     0.0175041718
    2      C      -1.2766805665    -1.5073154128     0.0244848580
    3      C       0.1960025647    -1.6004233212     0.2522057421
    4      C       0.6326220935    -0.1714513340     0.3850610802
    5      C      -0.4850663705     0.6623043362     0.2507118352
    6      C      -2.9829476301     0.2282443997    -0.2062822982
    7      C      -3.9363860406    -0.7590752210    -0.4666816382
    8      C      -3.5539944743    -2.1062562819    -0.5309036256
    9      C      -2.2255311846    -2.4832837039    -0.3038846830
   10      H      -3.2667435647     1.2742352991    -0.1944520010
   11      H      -4.9683982943    -0.4804170667    -0.6486450765
   12      H      -4.2912035419    -2.8634909066    -0.7724946785
   13      H      -1.9546179866    -3.5175542349    -0.4173180157
   14      C      -0.3950632942     2.0505065351     0.3708668072
   15      C       1.8592527919     0.4030414179     0.7549549516
   16      C       0.8451087282     2.6166688694     0.6730786227
   17      C       1.9606089327     1.7937053675     0.8798482303
   18      H       2.7293510895    -0.1954329376     0.9696911266
   19      H       2.9117290514     2.2372045218     1.1518862084
   20      H      -1.2698317867     2.6793234295     0.2516892302
   21      H       0.9388753541     3.6919687660     0.7771099651
   22      C       0.9630976962    -2.7335505342     0.3890105438
   23      C       0.4975187496    -4.0875594090     0.9597154091
   24      C       2.4303106511    -2.8936669803     0.1776718133
   25      C       1.7730729959    -4.5892601392     1.7028479180
   26      C       2.8904403491    -3.9350463469     0.9688383142
   27      H       1.8169645699    -5.6915385524     1.6868165733
   28      H       1.8167952117    -4.2493207235     2.7525935053
   29      C       4.2463088163    -4.2749494385     1.0483647263
   30      C       5.1588658991    -3.5994705135     0.2519725923
   31      C       3.3324258208    -2.2694278494    -0.7413547031
   32      C       4.7207527775    -2.6217314080    -0.6713928638
   33      H       4.5781652640    -5.0674263076     1.7102661884
   34      H       6.2092533589    -3.8664808356     0.3022537047
   35      C       5.6426493979    -2.0139684462    -1.5497038423
   36      C       2.9233030273    -1.3770351679    -1.7581074276
   37      C       3.8496939733    -0.8034922682    -2.6213084398
   38      C       5.2127427190    -1.1080841417    -2.5084502525
   39      H       1.8799813523    -1.1331566752    -1.8908470221
   40      H       3.5117097326    -0.1166467819    -3.3891567199
   41      H       6.6954846795    -2.2696059066    -1.4930084436
   42      H       5.9291743796    -0.6547520708    -3.1845844003
   43      H       0.3341384669    -4.7765570380     0.1096196316
   44      C      -0.6532505790    -4.1396123427     1.9549923075
   45      C      -1.6452253550    -5.1268231081     1.8458171979
   46      C      -0.7130097811    -3.2442944183     3.0352581361
   47      C      -2.6823685518    -5.2044114108     2.7788404084
   48      C      -1.7511212193    -3.3199019693     3.9649997272
   49      H       0.0461979477    -2.4786747675     3.1490313756
   50      C      -2.7393462338    -4.2980390155     3.8377393714
   51      H      -1.7884611590    -2.6162892682     4.7890941073
   52      H      -3.5451090522    -4.3557452939     4.5610755923
   53      H      -1.6098972968    -5.8411670915     1.0295171723
   54      H      -3.4436110316    -5.9702323899     2.6791069860
 ----------------------------------------------------------------
 Nuclear Repulsion Energy =  2947.5705596677 hartrees
 There are      107 alpha and      107 beta electrons
 Applying Cartesian multipole field
    Component          Value
    ---------          -----
     (2,0,0)        1.00000E-12
     (0,2,0)        2.00000E-12
     (0,0,2)       -3.00000E-11
 Nucleus-field energy     =    -0.0000000454 hartrees
 Requested basis set is 6-31G(d,p)
 There are 194 shells and 590 basis functions
 A cutoff of  1.0D-11 yielded   9661 shell pairs
 There are     96706 function pairs
 Smallest overlap matrix eigenvalue = 2.30E-04
 Guess MOs from SCF MO coefficient file

 -----------------------------------------------------------------------
  General SCF calculation program by
  Eric Jon Sundstrom, Paul Horn, Yuezhi Mao, Dmitri Zuev, Alec White,
  David Stuck, Shaama M.S., Shane Yost, Joonho Lee, David Small,
  Daniel Levine, Susi Lehtola, Hugh Burton, Evgeny Epifanovsky
 -----------------------------------------------------------------------
 Exchange:     0.2000 Hartree-Fock + 0.0800 Slater + 0.7200 B88
 Correlation:  0.1900 VWN1RPA + 0.8100 LYP
 Using SG-1 standard quadrature grid
 using 14 threads for integral computing
 -------------------------------------------------------
 OpenMP Integral computing Module                
 Release: version 1.0, May 2013, Q-Chem Inc. Pittsburgh 
 -------------------------------------------------------
 -------------------------------------------------------
 OpenMP BLAS3 based DFT computing Module                
 Release: version 1.0, May 2013, Q-Chem Inc. Pittsburgh 
 -------------------------------------------------------
 A restricted SCF calculation will be
 performed using DIIS
 SCF converges when DIIS error is below 1.0e-08
 ---------------------------------------
  Cycle       Energy         DIIS error
 ---------------------------------------
    1   -1232.6564621825      6.64e-04  
    2   -1232.7002678658      1.05e-04  
    3   -1232.6996805246      1.74e-04  
    4   -1232.7011595971      3.00e-05  
    5   -1232.7011895833      1.88e-05  
    6   -1232.7012057776      5.56e-06  
    7   -1232.7012071584      1.72e-06  
    8   -1232.7012072935      4.36e-07  
    9   -1232.7012073015      1.47e-07  
   10   -1232.7012073024      5.45e-08  
   11   -1232.7012073025      2.26e-08  
   12   -1232.7012073025      8.00e-09  Convergence criterion met
 ---------------------------------------
 SCF time:   CPU 910.69s  wall 67.00s 
 SCF   energy in the final basis set =    -1232.7012073025
 Total energy in the final basis set =    -1232.7012073025
 
 --------------------------------------------------------------
 
                    Orbital Energies (a.u.)
 --------------------------------------------------------------
 
 Alpha MOs
 -- Occupied --
-10.2117 -10.2080 -10.2013 -10.1994 -10.1988 -10.1983 -10.1972 -10.1964
-10.1951 -10.1945 -10.1927 -10.1914 -10.1897 -10.1892 -10.1864 -10.1864
-10.1862 -10.1858 -10.1856 -10.1843 -10.1841 -10.1832 -10.1820 -10.1820
-10.1815 -10.1813 -10.1813 -10.1812 -10.1802 -10.1800 -10.1799 -10.1795
 -0.8911  -0.8780  -0.8578  -0.8414  -0.8325  -0.8086  -0.7899  -0.7719
 -0.7607  -0.7488  -0.7395  -0.7363  -0.7314  -0.7117  -0.7037  -0.6972
 -0.6584  -0.6276  -0.6253  -0.6109  -0.6015  -0.5913  -0.5867  -0.5772
 -0.5731  -0.5622  -0.5388  -0.5194  -0.5077  -0.5053  -0.4886  -0.4831
 -0.4801  -0.4705  -0.4630  -0.4525  -0.4475  -0.4406  -0.4338  -0.4313
 -0.4296  -0.4228  -0.4158  -0.4144  -0.4109  -0.4062  -0.4023  -0.3976
 -0.3937  -0.3887  -0.3828  -0.3782  -0.3718  -0.3693  -0.3525  -0.3492
 -0.3439  -0.3415  -0.3381  -0.3360  -0.3335  -0.3271  -0.3240  -0.3210
 -0.3196  -0.2975  -0.2824  -0.2682  -0.2460  -0.2430  -0.2414  -0.2328
 -0.2246  -0.2053  -0.1893
 -- Virtual --
 -0.0717  -0.0287  -0.0156  -0.0095   0.0019   0.0030   0.0166   0.0347
  0.0524   0.0708   0.0836   0.0979   0.1004   0.1062   0.1093   0.1151
  0.1202   0.1263   0.1401   0.1427   0.1530   0.1560   0.1623   0.1661
  0.1686   0.1712   0.1737   0.1768   0.1816   0.1873   0.1927   0.1944
  0.1972   0.1992   0.2084   0.2118   0.2146   0.2279   0.2343   0.2423
  0.2484   0.2544   0.2623   0.2710   0.2722   0.2844   0.2908   0.3048
  0.3064   0.3098   0.3115   0.3164   0.3180   0.3294   0.3363   0.3451
  0.3496   0.3622   0.3790   0.3806   0.3927   0.4017   0.4088   0.4335
  0.4479   0.4574   0.4751   0.4814   0.4869   0.5033   0.5075   0.5126
  0.5192   0.5222   0.5312   0.5347   0.5384   0.5398   0.5422   0.5481
  0.5510   0.5540   0.5585   0.5606   0.5636   0.5684   0.5704   0.5763
  0.5775   0.5798   0.5810   0.5870   0.5932   0.5960   0.5971   0.6000
  0.6014   0.6044   0.6060   0.6091   0.6112   0.6121   0.6149   0.6172
  0.6200   0.6208   0.6251   0.6262   0.6288   0.6323   0.6405   0.6430
  0.6477   0.6531   0.6552   0.6632   0.6649   0.6729   0.6767   0.6829
  0.6892   0.7054   0.7065   0.7123   0.7226   0.7453   0.7541   0.7627
  0.7687   0.7890   0.7911   0.7974   0.8015   0.8041   0.8059   0.8133
  0.8175   0.8212   0.8249   0.8273   0.8291   0.8329   0.8360   0.8384
  0.8478   0.8534   0.8562   0.8600   0.8619   0.8623   0.8679   0.8760
  0.8829   0.8904   0.9028   0.9054   0.9108   0.9135   0.9227   0.9285
  0.9322   0.9421   0.9476   0.9574   0.9620   0.9664   0.9750   0.9817
  0.9902   1.0014   1.0027   1.0073   1.0114   1.0236   1.0340   1.0364
  1.0538   1.0624   1.0663   1.0745   1.0842   1.0866   1.0977   1.1119
  1.1216   1.1325   1.1358   1.1418   1.1576   1.1624   1.1658   1.1798
  1.1815   1.1985   1.2042   1.2199   1.2303   1.2434   1.2494   1.2538
  1.2661   1.2694   1.2758   1.2777   1.2949   1.3017   1.3120   1.3171
  1.3310   1.3392   1.3502   1.3652   1.3679   1.3717   1.3740   1.3913
  1.3949   1.4014   1.4072   1.4139   1.4158   1.4171   1.4196   1.4247
  1.4279   1.4283   1.4326   1.4360   1.4486   1.4548   1.4640   1.4651
  1.4820   1.4974   1.5083   1.5194   1.5525   1.5699   1.5822   1.5874
  1.6009   1.6168   1.6402   1.6475   1.6874   1.6953   1.7235   1.7346
  1.7504   1.7536   1.7609   1.7675   1.7719   1.7755   1.7819   1.7906
  1.7931   1.7987   1.8082   1.8128   1.8166   1.8369   1.8458   1.8514
  1.8560   1.8745   1.8803   1.8841   1.8875   1.8890   1.8981   1.9032
  1.9117   1.9143   1.9166   1.9234   1.9318   1.9356   1.9383   1.9442
  1.9489   1.9553   1.9616   1.9678   1.9717   1.9766   1.9843   1.9921
  1.9957   2.0027   2.0085   2.0107   2.0116   2.0164   2.0240   2.0278
  2.0404   2.0445   2.0575   2.0675   2.0768   2.0890   2.0958   2.1042
  2.1237   2.1364   2.1382   2.1523   2.1638   2.1706   2.1931   2.1953
  2.2071   2.2140   2.2416   2.2443   2.2523   2.2594   2.2756   2.2808
  2.2873   2.2897   2.2952   2.3003   2.3108   2.3152   2.3208   2.3337
  2.3388   2.3461   2.3524   2.3620   2.3667   2.3820   2.3826   2.3881
  2.3904   2.3956   2.3986   2.4000   2.4029   2.4094   2.4132   2.4208
  2.4288   2.4413   2.4513   2.4546   2.4565   2.4624   2.4690   2.4725
  2.4770   2.4820   2.4862   2.4958   2.5022   2.5081   2.5187   2.5228
  2.5286   2.5380   2.5449   2.5500   2.5516   2.5624   2.5671   2.5719
  2.5830   2.5851   2.5956   2.5991   2.6023   2.6060   2.6104   2.6205
  2.6275   2.6368   2.6466   2.6508   2.6654   2.6714   2.6745   2.6854
  2.6946   2.7033   2.7124   2.7166   2.7219   2.7317   2.7417   2.7547
  2.7580   2.7655   2.7696   2.7807   2.7867   2.8014   2.8090   2.8165
  2.8409   2.8582   2.8711   2.8788   2.8897   2.9063   2.9248   2.9253
  2.9485   2.9903   3.0035   3.0268   3.0311   3.0574   3.0724   3.0937
  3.1325   3.1489   3.1874   3.1932   3.2001   3.2119   3.2292   3.2453
  3.2463   3.2559   3.2580   3.2589   3.2620   3.2769   3.2822   3.3081
  3.3422   3.3476   3.3493   3.3570   3.3857   3.3931   3.4089   3.4458
  3.4492   3.4795   3.4879   3.4950   3.5159   3.5314   3.7276   3.8289
  3.8660   3.9009   3.9104   4.1118   4.1217   4.1267   4.1384   4.1459
  4.1493   4.1503   4.1588   4.1727   4.1829   4.1937   4.2028   4.2073
  4.2560   4.2665   4.2948   4.3891   4.3965   4.4095   4.4412   4.4432
  4.4735   4.5053   4.5254   4.5468   4.5962   4.6726   4.7702   4.8528
  4.8835   4.9227   4.9516
 --------------------------------------------------------------
 
          Ground-State Mulliken Net Atomic Charges

     Atom                 Charge (a.u.)
  ----------------------------------------
      1 C                     0.029391
      2 C                     0.069174
      3 C                    -0.022903
      4 C                     0.052015
      5 C                     0.030192
      6 C                    -0.118438
      7 C                    -0.096871
      8 C                    -0.092268
      9 C                    -0.116963
     10 H                     0.080709
     11 H                     0.080210
     12 H                     0.079102
     13 H                     0.078469
     14 C                    -0.118884
     15 C                    -0.132101
     16 C                    -0.098078
     17 C                    -0.090848
     18 H                     0.093196
     19 H                     0.080765
     20 H                     0.081050
     21 H                     0.080113
     22 C                    -0.025581
     23 C                    -0.197703
     24 C                     0.028169
     25 C                    -0.235949
     26 C                     0.062343
     27 H                     0.111286
     28 H                     0.129974
     29 C                    -0.132381
     30 C                    -0.131794
     31 C                     0.058637
     32 C                     0.113739
     33 H                     0.084661
     34 H                     0.088354
     35 C                    -0.142787
     36 C                    -0.119258
     37 C                    -0.094685
     38 C                    -0.086385
     39 H                     0.106408
     40 H                     0.090019
     41 H                     0.085613
     42 H                     0.085156
     43 H                     0.113234
     44 C                     0.147026
     45 C                    -0.136531
     46 C                    -0.114778
     47 C                    -0.082230
     48 C                    -0.085179
     49 H                     0.090408
     50 C                    -0.084794
     51 H                     0.086426
     52 H                     0.082800
     53 H                     0.075901
     54 H                     0.082846
  ----------------------------------------
  Sum of atomic charges =    -0.000000

 -----------------------------------------------------------------
                    Cartesian Multipole Moments
 -----------------------------------------------------------------
    Charge (ESU x 10^10)
                -0.0000
    Dipole Moment (Debye)
         X       1.0347      Y      -1.2058      Z       0.2451
       Tot       1.6077
    Quadrupole Moments (Debye-Ang)
        XX    -163.4269     XY      -2.7521     YY    -165.5645
        XZ      -0.6012     YZ      -3.2314     ZZ    -180.0278
    Octopole Moments (Debye-Ang^2)
       XXX    -312.2917    XXY     306.9365    XYY    -127.3011
       YYY    1009.7700    XXZ     -92.3098    XYZ     -10.5552
       YYZ     -73.3101    XZZ    -121.8418    YZZ     362.2132
       ZZZ    -254.3744
    Hexadecapole Moments (Debye-Ang^3)
      XXXX   -8330.4702   XXXY     529.0338   XXYY   -2820.9476
      XYYY     764.4272   YYYY   -8971.2545   XXXZ     793.7057
      XXYZ     318.8183   XYYZ     374.8985   YYYZ    1279.8925
      XXZZ   -1966.4858   XYZZ     302.2845   YYZZ   -2182.7773
      XZZZ     790.7805   YZZZ    1262.0709   ZZZZ   -3108.8684
 -----------------------------------------------------------------
 Calculating analytic gradient of the SCF energy
 Gradient of SCF Energy
            1           2           3           4           5           6
    1   0.0076716  -0.0059045   0.0018653  -0.0136811   0.0085414   0.0006536
    2  -0.0123582   0.0159719  -0.0062081   0.0097192  -0.0107744   0.0062967
    3   0.0000573  -0.0014983   0.0011958  -0.0002559   0.0014420   0.0014519
            7           8           9          10          11          12
    1  -0.0026147  -0.0037203   0.0038570  -0.0001029   0.0013404   0.0006753
    2   0.0004437  -0.0027944  -0.0046068  -0.0015440  -0.0001841   0.0010760
    3  -0.0002873  -0.0002284   0.0012344   0.0000940  -0.0001051   0.0001640
           13          14          15          16          17          18
    1  -0.0023048  -0.0060094   0.0026901   0.0005284   0.0042865  -0.0027903
    2   0.0054897   0.0011747  -0.0040880   0.0022690   0.0027345   0.0043303
    3  -0.0017729  -0.0020802   0.0010396   0.0000193   0.0002470   0.0018596
           19          20          21          22          23          24
    1  -0.0012954   0.0015663  -0.0003687  -0.0055510   0.0010181   0.0093370
    2  -0.0001630  -0.0003605  -0.0013066  -0.0023707   0.0003273  -0.0032287
    3  -0.0002827   0.0000615   0.0002335   0.0011957  -0.0066534  -0.0041516
           25          26          27          28          29          30
    1  -0.0040938  -0.0044022  -0.0023666   0.0075770  -0.0110035   0.0077023
    2   0.0062287   0.0034820  -0.0053347   0.0045057  -0.0031381   0.0104090
    3  -0.0009592   0.0010363  -0.0032278   0.0034576   0.0078327  -0.0104137
           31          32          33          34          35          36
    1   0.0050127  -0.0037939   0.0000314  -0.0016195   0.0018205  -0.0072363
    2  -0.0046837   0.0007509   0.0009406  -0.0018256  -0.0105439  -0.0080063
    3   0.0025676  -0.0015411  -0.0010102   0.0010641   0.0124199   0.0083809
           37          38          39          40          41          42
    1   0.0104179  -0.0088846   0.0029073   0.0007540  -0.0005453  -0.0008203
    2   0.0033250   0.0065752   0.0005389  -0.0003189   0.0016963  -0.0007494
    3  -0.0054683  -0.0058239  -0.0029646   0.0010994  -0.0018907   0.0005427
           43          44          45          46          47          48
    1   0.0034759   0.0064231  -0.0010586   0.0035331  -0.0019672  -0.0017857
    2  -0.0009016  -0.0021803  -0.0032619   0.0024258  -0.0014755   0.0017177
    3  -0.0059880   0.0075347  -0.0035856  -0.0003627  -0.0010301   0.0025250
           49          50          51          52          53          54
    1  -0.0005151  -0.0002722  -0.0001995   0.0010199  -0.0005804   0.0007817
    2  -0.0010150   0.0006896  -0.0010467  -0.0000466   0.0003192   0.0010779
    3   0.0012545   0.0008635  -0.0009115  -0.0007530   0.0019956   0.0003764
 Max gradient component =       1.597E-02
 RMS gradient           =       4.510E-03
 Gradient time:  CPU 256.32 s  wall 20.40 s
 Geometry Optimization Parameters
   NAtoms,    NIC,     NZ,  NCons,   NDum,   NFix, NCnnct, MaxDiis
       54     433       0       0       0       0       0       0

 Cartesian Hessian Update
 Hessian updated using BFGS update


** GEOMETRY OPTIMIZATION IN DELOCALIZED INTERNAL COORDINATES **
   Searching for a Minimum

   Optimization Cycle:   2

                       Coordinates (Angstroms)
     ATOM                X               Y               Z
      1  C        -1.6611034474   -0.1618539115    0.0175041718
      2  C        -1.2766805665   -1.5073154128    0.0244848580
      3  C         0.1960025647   -1.6004233212    0.2522057421
      4  C         0.6326220935   -0.1714513340    0.3850610802
      5  C        -0.4850663705    0.6623043362    0.2507118352
      6  C        -2.9829476301    0.2282443997   -0.2062822982
      7  C        -3.9363860406   -0.7590752210   -0.4666816382
      8  C        -3.5539944743   -2.1062562819   -0.5309036256
      9  C        -2.2255311846   -2.4832837039   -0.3038846830
     10  H        -3.2667435647    1.2742352991   -0.1944520010
     11  H        -4.9683982943   -0.4804170667   -0.6486450765
     12  H        -4.2912035419   -2.8634909066   -0.7724946785
     13  H        -1.9546179866   -3.5175542349   -0.4173180157
     14  C        -0.3950632942    2.0505065351    0.3708668072
     15  C         1.8592527919    0.4030414179    0.7549549516
     16  C         0.8451087282    2.6166688694    0.6730786227
     17  C         1.9606089327    1.7937053675    0.8798482303
     18  H         2.7293510895   -0.1954329376    0.9696911266
     19  H         2.9117290514    2.2372045218    1.1518862084
     20  H        -1.2698317867    2.6793234295    0.2516892302
     21  H         0.9388753541    3.6919687660    0.7771099651
     22  C         0.9630976962   -2.7335505342    0.3890105438
     23  C         0.4975187496   -4.0875594090    0.9597154091
     24  C         2.4303106511   -2.8936669803    0.1776718133
     25  C         1.7730729959   -4.5892601392    1.7028479180
     26  C         2.8904403491   -3.9350463469    0.9688383142
     27  H         1.8169645699   -5.6915385524    1.6868165733
     28  H         1.8167952117   -4.2493207235    2.7525935053
     29  C         4.2463088163   -4.2749494385    1.0483647263
     30  C         5.1588658991   -3.5994705135    0.2519725923
     31  C         3.3324258208   -2.2694278494   -0.7413547031
     32  C         4.7207527775   -2.6217314080   -0.6713928638
     33  H         4.5781652640   -5.0674263076    1.7102661884
     34  H         6.2092533589   -3.8664808356    0.3022537047
     35  C         5.6426493979   -2.0139684462   -1.5497038423
     36  C         2.9233030273   -1.3770351679   -1.7581074276
     37  C         3.8496939733   -0.8034922682   -2.6213084398
     38  C         5.2127427190   -1.1080841417   -2.5084502525
     39  H         1.8799813523   -1.1331566752   -1.8908470221
     40  H         3.5117097326   -0.1166467819   -3.3891567199
     41  H         6.6954846795   -2.2696059066   -1.4930084436
     42  H         5.9291743796   -0.6547520708   -3.1845844003
     43  H         0.3341384669   -4.7765570380    0.1096196316
     44  C        -0.6532505790   -4.1396123427    1.9549923075
     45  C        -1.6452253550   -5.1268231081    1.8458171979
     46  C        -0.7130097811   -3.2442944183    3.0352581361
     47  C        -2.6823685518   -5.2044114108    2.7788404084
     48  C        -1.7511212193   -3.3199019693    3.9649997272
     49  H         0.0461979477   -2.4786747675    3.1490313756
     50  C        -2.7393462338   -4.2980390155    3.8377393714
     51  H        -1.7884611590   -2.6162892682    4.7890941073
     52  H        -3.5451090522   -4.3557452939    4.5610755923
     53  H        -1.6098972968   -5.8411670915    1.0295171723
     54  H        -3.4436110316   -5.9702323899    2.6791069860
   Point Group: c1    Number of degrees of freedom:   156


   Energy is  -1232.701207303

 Hessian updated using BFGS update

156 Hessian modes will be used to form the next step
  Hessian Eigenvalues:
     0.006433    0.006542    0.011712    0.012460    0.015344    0.017094
     0.017578    0.018002    0.018574    0.019129    0.019720    0.020090
     0.020341    0.020663    0.020743    0.020888    0.021371    0.021658
     0.021871    0.021909    0.021920    0.021933    0.021947    0.021960
     0.022032    0.022053    0.022101    0.022151    0.022183    0.022225
     0.022235    0.022442    0.022450    0.022456    0.022467    0.022506
     0.022627    0.022694    0.022751    0.022787    0.022810    0.022846
     0.022969    0.022994    0.023123    0.023158    0.041893    0.043812
     0.048903    0.053798    0.059896    0.076942    0.079715    0.085539
     0.143073    0.151524    0.159854    0.159892    0.159923    0.159930
     0.159968    0.159972    0.159979    0.159979    0.159982    0.159985
     0.159986    0.159989    0.159997    0.159999    0.159999    0.160000
     0.160000    0.160677    0.199983    0.219076    0.219963    0.219979
     0.219993    0.220000    0.223964    0.224854    0.225854    0.226439
     0.231492    0.235885    0.240294    0.243630    0.244697    0.245384
     0.246420    0.248020    0.248734    0.248984    0.249444    0.250407
     0.262919    0.289296    0.290121    0.303261    0.316088    0.319831
     0.322213    0.323763    0.328502    0.347972    0.355585    0.355682
     0.356432    0.356445    0.356937    0.357038    0.357081    0.357114
     0.357133    0.357185    0.357202    0.357224    0.357249    0.357607
     0.357704    0.358011    0.361350    0.364601    0.369467    0.373063
     0.380188    0.395704    0.403968    0.409952    0.411698    0.412225
     0.413983    0.414798    0.426182    0.427471    0.433639    0.440093
     0.446005    0.447214    0.448899    0.451259    0.451693    0.453772
     0.453973    0.454250    0.455270    0.456576    0.458016    0.458978
     0.459913    0.461332    0.461986    0.466157    0.467354    0.516744

 Minimum search - taking simple RFO step
 Searching for Lamda that Minimizes Along All modes
 Value Taken    Lamda =  -0.01710413
 Calculated Step too Large.  Step scaled by  0.620920
 Step Taken.  Stepsize is  0.300000

                             Maximum     Tolerance    Cnvgd?
         Gradient           0.021121      0.000300      NO
         Displacement       0.091215      0.001200      NO
         Energy change     -0.007929      0.000001      NO


 New Cartesian Coordinates Obtained by Inverse Iteration

 Displacement from previous Coordinates is:  1.224508
 ----------------------------------------------------------------
             Standard Nuclear Orientation (Angstroms)
    I     Atom           X                Y                Z
 ----------------------------------------------------------------
    1      C      -1.6388920231    -0.1586383669     0.0092932121
    2      C      -1.2474274139    -1.5222850987     0.0534347341
    3      C       0.2186231312    -1.6042219236     0.2772255501
    4      C       0.6763200782    -0.1872546951     0.3614135150
    5      C      -0.4477550566     0.6703516406     0.2274923599
    6      C      -2.9637366822     0.2045097212    -0.2328732884
    7      C      -3.9043589979    -0.7971672637    -0.4656448833
    8      C      -3.5142716203    -2.1408826762    -0.4856336948
    9      C      -2.1923204792    -2.5094655569    -0.2429808893
   10      H      -3.2576780701     1.2507861524    -0.2546501557
   11      H      -4.9418258348    -0.5329275718    -0.6561208105
   12      H      -4.2498029603    -2.9117754676    -0.6996679204
   13      H      -1.9130208787    -3.5553858001    -0.3059665946
   14      C      -0.3198261008     2.0559243301     0.3330610275
   15      C       1.9169146460     0.3701043674     0.6865532568
   16      C       0.9350203327     2.5966267857     0.6060634390
   17      C       2.0372348760     1.7550847882     0.7950957008
   18      H       2.7836599332    -0.2546260565     0.8714382269
   19      H       3.0063752974     2.1842168749     1.0356802231
   20      H      -1.1861016705     2.7028818381     0.2202733057
   21      H       1.0554545312     3.6739408740     0.6923221217
   22      C       0.9731956862    -2.7369670600     0.4375447356
   23      C       0.4887401518    -4.0914361125     1.0216173223
   24      C       2.4296518431    -2.8915211078     0.2184975414
   25      C       1.7864223673    -4.6227907490     1.7313816630
   26      C       2.9128220263    -3.9610562891     0.9767488261
   27      H       1.8399897067    -5.7118428127     1.7159701226
   28      H       1.7836587107    -4.3163352609     2.7795696206
   29      C       4.2814690321    -4.3019783233     1.0059888637
   30      C       5.1625285707    -3.6071755256     0.2126916873
   31      C       3.3118628161    -2.2280237505    -0.7080843250
   32      C       4.7093858347    -2.5900274991    -0.6788771121
   33      H       4.6330293003    -5.1120676962     1.6407257437
   34      H       6.2197934550    -3.8603291027     0.2231489173
   35      C       5.6098931930    -1.9469354726    -1.5717675045
   36      C       2.8867693898    -1.2943839886    -1.6873669862
   37      C       3.7873293459    -0.7072004447    -2.5506912662
   38      C       5.1638783239    -1.0193475333    -2.4842396351
   39      H       1.8349014781    -1.0487536793    -1.7656552185
   40      H       3.4274341265     0.0036576904    -3.2900544878
   41      H       6.6624768269    -2.2161881980    -1.5377962200
   42      H       5.8669755616    -0.5449944568    -3.1645681707
   43      H       0.2979802224    -4.7808522210     0.1926838897
   44      C      -0.6953484750    -4.1344942089     1.9770087690
   45      C      -1.6696843350    -5.1289052909     1.8562914115
   46      C      -0.7959851810    -3.2363116746     3.0437887517
   47      C      -2.7244673901    -5.2219073841     2.7661710283
   48      C      -1.8488709907    -3.3196996533     3.9513754069
   49      H      -0.0493059130    -2.4557726233     3.1583355173
   50      C      -2.8209547175    -4.3126101625     3.8167239349
   51      H      -1.9112302894    -2.6045105333     4.7678801572
   52      H      -3.6436232073    -4.3765210621     4.5247910294
   53      H      -1.5985626461    -5.8456474922     1.0394787965
   54      H      -3.4711098613    -6.0041372168     2.6508387542
 ----------------------------------------------------------------
 Nuclear Repulsion Energy =  2951.4108166860 hartrees
 There are      107 alpha and      107 beta electrons
 Applying Cartesian multipole field
    Component          Value
    ---------          -----
     (2,0,0)        1.00000E-12
     (0,2,0)        2.00000E-12
     (0,0,2)       -3.00000E-11
 Nucleus-field energy     =    -0.0000000444 hartrees
 Requested basis set is 6-31G(d,p)
 There are 194 shells and 590 basis functions
 A cutoff of  1.0D-11 yielded   9689 shell pairs
 There are     97009 function pairs
 Smallest overlap matrix eigenvalue = 2.38E-04
 Guess MOs from SCF MO coefficient file

 -----------------------------------------------------------------------
  General SCF calculation program by
  Eric Jon Sundstrom, Paul Horn, Yuezhi Mao, Dmitri Zuev, Alec White,
  David Stuck, Shaama M.S., Shane Yost, Joonho Lee, David Small,
  Daniel Levine, Susi Lehtola, Hugh Burton, Evgeny Epifanovsky
 -----------------------------------------------------------------------
 Exchange:     0.2000 Hartree-Fock + 0.0800 Slater + 0.7200 B88
 Correlation:  0.1900 VWN1RPA + 0.8100 LYP
 Using SG-1 standard quadrature grid
 using 14 threads for integral computing
 -------------------------------------------------------
 OpenMP Integral computing Module                
 Release: version 1.0, May 2013, Q-Chem Inc. Pittsburgh 
 -------------------------------------------------------
 -------------------------------------------------------
 OpenMP BLAS3 based DFT computing Module                
 Release: version 1.0, May 2013, Q-Chem Inc. Pittsburgh 
 -------------------------------------------------------
 A restricted SCF calculation will be
 performed using DIIS
 SCF converges when DIIS error is below 1.0e-08
 ---------------------------------------
  Cycle       Energy         DIIS error
 ---------------------------------------
    1   -1232.6937662245      3.71e-04  
    2   -1232.7052647782      7.80e-05  
    3   -1232.7050103774      1.15e-04  
    4   -1232.7055885378      2.16e-05  
    5   -1232.7056059820      1.10e-05  
    6   -1232.7056112821      3.19e-06  
    7   -1232.7056116860      1.51e-06  
    8   -1232.7056117926      3.98e-07  
    9   -1232.7056117998      9.62e-08  
   10   -1232.7056118002      4.14e-08  
   11   -1232.7056118003      1.54e-08  
   12   -1232.7056118003      6.88e-09  Convergence criterion met
 ---------------------------------------
 SCF time:   CPU 915.26s  wall 68.00s 
 SCF   energy in the final basis set =    -1232.7056118003
 Total energy in the final basis set =    -1232.7056118003
 
 --------------------------------------------------------------
 
                    Orbital Energies (a.u.)
 --------------------------------------------------------------
 
 Alpha MOs
 -- Occupied --
-10.2107 -10.2082 -10.2026 -10.2016 -10.2015 -10.2000 -10.1983 -10.1971
-10.1953 -10.1948 -10.1941 -10.1922 -10.1908 -10.1901 -10.1874 -10.1863
-10.1862 -10.1861 -10.1858 -10.1855 -10.1848 -10.1835 -10.1828 -10.1827
-10.1820 -10.1817 -10.1814 -10.1811 -10.1809 -10.1802 -10.1793 -10.1792
 -0.8882  -0.8747  -0.8575  -0.8412  -0.8328  -0.8090  -0.7897  -0.7718
 -0.7597  -0.7482  -0.7402  -0.7374  -0.7325  -0.7118  -0.7029  -0.6981
 -0.6578  -0.6265  -0.6255  -0.6093  -0.6022  -0.5934  -0.5858  -0.5775
 -0.5725  -0.5614  -0.5381  -0.5183  -0.5079  -0.5049  -0.4884  -0.4837
 -0.4809  -0.4705  -0.4624  -0.4518  -0.4469  -0.4401  -0.4341  -0.4309
 -0.4286  -0.4227  -0.4167  -0.4140  -0.4111  -0.4070  -0.4009  -0.3966
 -0.3926  -0.3874  -0.3836  -0.3770  -0.3727  -0.3682  -0.3528  -0.3489
 -0.3433  -0.3415  -0.3383  -0.3350  -0.3335  -0.3297  -0.3246  -0.3205
 -0.3186  -0.2981  -0.2818  -0.2690  -0.2465  -0.2451  -0.2410  -0.2345
 -0.2251  -0.2047  -0.1902
 -- Virtual --
 -0.0721  -0.0282  -0.0141  -0.0112   0.0013   0.0018   0.0166   0.0354
  0.0527   0.0727   0.0841   0.0972   0.0991   0.1060   0.1092   0.1151
  0.1201   0.1292   0.1396   0.1428   0.1523   0.1557   0.1640   0.1645
  0.1677   0.1702   0.1736   0.1767   0.1822   0.1892   0.1916   0.1963
  0.1989   0.2006   0.2084   0.2124   0.2142   0.2244   0.2305   0.2400
  0.2488   0.2588   0.2595   0.2683   0.2720   0.2792   0.2913   0.3045
  0.3070   0.3097   0.3116   0.3146   0.3181   0.3310   0.3338   0.3461
  0.3507   0.3622   0.3771   0.3774   0.3928   0.4001   0.4069   0.4333
  0.4479   0.4534   0.4725   0.4802   0.4845   0.5031   0.5089   0.5112
  0.5171   0.5224   0.5318   0.5328   0.5366   0.5382   0.5402   0.5487
  0.5513   0.5544   0.5577   0.5612   0.5633   0.5694   0.5720   0.5745
  0.5770   0.5787   0.5802   0.5854   0.5923   0.5955   0.5974   0.5995
  0.6007   0.6041   0.6067   0.6069   0.6112   0.6124   0.6148   0.6191
  0.6197   0.6207   0.6242   0.6257   0.6298   0.6321   0.6396   0.6410
  0.6483   0.6509   0.6555   0.6658   0.6676   0.6738   0.6799   0.6872
  0.6899   0.7053   0.7089   0.7116   0.7225   0.7450   0.7536   0.7647
  0.7719   0.7888   0.7944   0.7983   0.8019   0.8037   0.8058   0.8134
  0.8172   0.8202   0.8232   0.8268   0.8287   0.8317   0.8342   0.8404
  0.8470   0.8536   0.8569   0.8590   0.8613   0.8672   0.8716   0.8755
  0.8846   0.8912   0.9007   0.9056   0.9092   0.9180   0.9210   0.9271
  0.9327   0.9447   0.9518   0.9580   0.9613   0.9698   0.9779   0.9879
  0.9945   1.0001   1.0040   1.0120   1.0187   1.0330   1.0375   1.0407
  1.0516   1.0642   1.0709   1.0756   1.0853   1.0915   1.0966   1.1079
  1.1242   1.1342   1.1408   1.1431   1.1600   1.1620   1.1677   1.1795
  1.1831   1.2002   1.2075   1.2199   1.2375   1.2467   1.2537   1.2551
  1.2670   1.2763   1.2799   1.2898   1.2939   1.3022   1.3151   1.3229
  1.3410   1.3440   1.3528   1.3684   1.3713   1.3737   1.3748   1.3855
  1.3952   1.4027   1.4072   1.4134   1.4166   1.4185   1.4197   1.4259
  1.4268   1.4283   1.4303   1.4421   1.4460   1.4507   1.4644   1.4656
  1.4822   1.4990   1.5066   1.5132   1.5589   1.5733   1.5800   1.5880
  1.6055   1.6212   1.6384   1.6494   1.6875   1.6968   1.7253   1.7368
  1.7482   1.7503   1.7532   1.7591   1.7655   1.7741   1.7782   1.7825
  1.7877   1.7984   1.8057   1.8087   1.8186   1.8343   1.8441   1.8523
  1.8572   1.8723   1.8770   1.8816   1.8822   1.8879   1.8960   1.9078
  1.9105   1.9112   1.9139   1.9203   1.9291   1.9343   1.9411   1.9425
  1.9495   1.9566   1.9629   1.9685   1.9738   1.9752   1.9858   1.9925
  1.9953   2.0028   2.0074   2.0109   2.0133   2.0154   2.0273   2.0302
  2.0418   2.0482   2.0607   2.0671   2.0717   2.0906   2.0995   2.1035
  2.1239   2.1345   2.1403   2.1499   2.1639   2.1673   2.1914   2.1975
  2.2112   2.2123   2.2366   2.2390   2.2481   2.2532   2.2732   2.2785
  2.2896   2.2927   2.2947   2.3011   2.3080   2.3113   2.3163   2.3356
  2.3416   2.3480   2.3503   2.3613   2.3686   2.3771   2.3780   2.3843
  2.3885   2.3940   2.3961   2.3986   2.4002   2.4078   2.4144   2.4175
  2.4291   2.4411   2.4515   2.4541   2.4564   2.4607   2.4656   2.4715
  2.4742   2.4799   2.4878   2.4952   2.5016   2.5050   2.5169   2.5285
  2.5305   2.5384   2.5443   2.5475   2.5526   2.5600   2.5710   2.5744
  2.5802   2.5877   2.5907   2.6006   2.6008   2.6022   2.6101   2.6202
  2.6244   2.6373   2.6445   2.6560   2.6615   2.6686   2.6749   2.6837
  2.6951   2.7040   2.7110   2.7154   2.7232   2.7352   2.7396   2.7506
  2.7591   2.7663   2.7764   2.7834   2.7878   2.7978   2.8129   2.8192
  2.8471   2.8574   2.8720   2.8832   2.8907   2.9024   2.9179   2.9305
  2.9452   2.9851   3.0069   3.0246   3.0321   3.0630   3.0714   3.0916
  3.1331   3.1468   3.1842   3.1869   3.2016   3.2153   3.2312   3.2382
  3.2394   3.2492   3.2524   3.2551   3.2600   3.2766   3.2840   3.3011
  3.3305   3.3414   3.3503   3.3646   3.3751   3.3874   3.4053   3.4467
  3.4550   3.4815   3.4905   3.4977   3.5138   3.5233   3.7089   3.8275
  3.8624   3.9026   3.9064   4.1089   4.1178   4.1267   4.1374   4.1451
  4.1521   4.1531   4.1573   4.1795   4.1854   4.1966   4.2076   4.2233
  4.2585   4.2711   4.2934   4.3803   4.3944   4.4164   4.4341   4.4472
  4.4748   4.5042   4.5242   4.5545   4.5972   4.6695   4.7686   4.8524
  4.8861   4.9197   4.9424
 --------------------------------------------------------------
 
          Ground-State Mulliken Net Atomic Charges

     Atom                 Charge (a.u.)
  ----------------------------------------
      1 C                     0.031757
      2 C                     0.062483
      3 C                    -0.027196
      4 C                     0.038595
      5 C                     0.034359
      6 C                    -0.123480
      7 C                    -0.095217
      8 C                    -0.094863
      9 C                    -0.109968
     10 H                     0.080644
     11 H                     0.080248
     12 H                     0.078667
     13 H                     0.078576
     14 C                    -0.124132
     15 C                    -0.123799
     16 C                    -0.096497
     17 C                    -0.094117
     18 H                     0.096713
     19 H                     0.080280
     20 H                     0.081083
     21 H                     0.080377
     22 C                    -0.012431
     23 C                    -0.193023
     24 C                     0.026598
     25 C                    -0.238798
     26 C                     0.058450
     27 H                     0.111777
     28 H                     0.129956
     29 C                    -0.131365
     30 C                    -0.126153
     31 C                     0.048723
     32 C                     0.103463
     33 H                     0.086608
     34 H                     0.088172
     35 C                    -0.137556
     36 C                    -0.111678
     37 C                    -0.097662
     38 C                    -0.086097
     39 H                     0.110485
     40 H                     0.090954
     41 H                     0.084822
     42 H                     0.086631
     43 H                     0.112812
     44 C                     0.143614
     45 C                    -0.137314
     46 C                    -0.113992
     47 C                    -0.082205
     48 C                    -0.085327
     49 H                     0.090961
     50 C                    -0.084988
     51 H                     0.086587
     52 H                     0.084155
     53 H                     0.075846
     54 H                     0.083465
  ----------------------------------------
  Sum of atomic charges =    -0.000000

 -----------------------------------------------------------------
                    Cartesian Multipole Moments
 -----------------------------------------------------------------
    Charge (ESU x 10^10)
                -0.0000
    Dipole Moment (Debye)
         X       1.0266      Y      -1.2527      Z       0.2743
       Tot       1.6427
    Quadrupole Moments (Debye-Ang)
        XX    -163.2088     XY      -2.5759     YY    -165.0396
        XZ      -1.2995     YZ      -4.0183     ZZ    -180.4638
    Octopole Moments (Debye-Ang^2)
       XXX    -312.9766    XXY     305.0223    XYY    -126.3329
       YYY    1004.1873    XXZ     -93.2288    XYZ      -9.2968
       YYZ     -71.3885    XZZ    -124.5370    YZZ     362.1834
       ZZZ    -254.9940
    Hexadecapole Moments (Debye-Ang^3)
      XXXX   -8330.3731   XXXY     471.8978   XXYY   -2807.7261
      XYYY     695.8262   YYYY   -8949.7217   XXXZ     791.9463
      XXYZ     328.0229   XYYZ     372.9391   YYYZ    1300.4046
      XXZZ   -1958.5875   XYZZ     284.5869   YYZZ   -2173.3542
      XZZZ     802.8495   YZZZ    1302.8973   ZZZZ   -3072.8488
 -----------------------------------------------------------------
 Calculating analytic gradient of the SCF energy
 Gradient of SCF Energy
            1           2           3           4           5           6
    1  -0.0022579  -0.0017835   0.0038441   0.0026184   0.0018853  -0.0023280
    2  -0.0007375  -0.0008456  -0.0048175   0.0013831   0.0022855  -0.0007978
    3  -0.0014846  -0.0011995   0.0021985  -0.0006402   0.0015664   0.0001477
            7           8           9          10          11          12
    1   0.0020627   0.0025639  -0.0024453  -0.0002114  -0.0007266  -0.0001242
    2   0.0009480   0.0004185   0.0009485   0.0003033   0.0002284  -0.0004435
    3   0.0005615   0.0007994   0.0010994   0.0000708  -0.0002150  -0.0000330
           13          14          15          16          17          18
    1   0.0002892   0.0014494  -0.0003715  -0.0017222  -0.0012233   0.0011358
    2  -0.0016792   0.0020148   0.0009372  -0.0012454  -0.0023313  -0.0009185
    3  -0.0009396  -0.0001587  -0.0017352  -0.0004408  -0.0008392   0.0009760
           19          20          21          22          23          24
    1   0.0004260  -0.0002065   0.0000152  -0.0045633  -0.0042093   0.0006572
    2  -0.0000815   0.0003923   0.0008346   0.0046997  -0.0012377   0.0013476
    3   0.0000874  -0.0001959   0.0001321  -0.0019735  -0.0016999  -0.0025022
           25          26          27          28          29          30
    1  -0.0012422   0.0024436  -0.0005612   0.0003539   0.0044147  -0.0004640
    2  -0.0035860  -0.0019120   0.0029157  -0.0006701   0.0019270  -0.0026657
    3   0.0054845  -0.0014648  -0.0000899  -0.0030550  -0.0001651   0.0035615
           31          32          33          34          35          36
    1  -0.0026244   0.0022176   0.0007857  -0.0000300   0.0006124   0.0000470
    2   0.0028097   0.0000879  -0.0005326  -0.0008555   0.0013741   0.0003061
    3  -0.0008736  -0.0012829   0.0002026   0.0002913  -0.0011514   0.0011115
           37          38          39          40          41          42
    1   0.0002005  -0.0000366  -0.0009914  -0.0007039   0.0001546   0.0010818
    2  -0.0006737  -0.0005477   0.0005896   0.0005833   0.0004213  -0.0000478
    3   0.0007556   0.0007380  -0.0001204   0.0000491  -0.0006904  -0.0004202
           43          44          45          46          47          48
    1   0.0022796  -0.0030218  -0.0001676  -0.0005926   0.0007444   0.0002195
    2   0.0011596  -0.0024878   0.0035656  -0.0024065   0.0013693  -0.0012073
    3   0.0024567   0.0030381   0.0008995  -0.0021023   0.0008339  -0.0017396
           49          50          51          52          53          54
    1   0.0004298   0.0005125  -0.0000171  -0.0007198   0.0005669  -0.0006661
    2  -0.0001543  -0.0003136   0.0003727  -0.0001478  -0.0003912  -0.0004883
    3   0.0003299  -0.0009725   0.0004378   0.0005355  -0.0003356   0.0001562
 Max gradient component =       5.485E-03
 RMS gradient           =       1.645E-03
 Gradient time:  CPU 260.30 s  wall 22.20 s
 Geometry Optimization Parameters
   NAtoms,    NIC,     NZ,  NCons,   NDum,   NFix, NCnnct, MaxDiis
       54     433       0       0       0       0       0       0

 Cartesian Hessian Update
 Hessian updated using BFGS update


** GEOMETRY OPTIMIZATION IN DELOCALIZED INTERNAL COORDINATES **
   Searching for a Minimum

   Optimization Cycle:   3

                       Coordinates (Angstroms)
     ATOM                X               Y               Z
      1  C        -1.6388920231   -0.1586383669    0.0092932121
      2  C        -1.2474274139   -1.5222850987    0.0534347341
      3  C         0.2186231312   -1.6042219236    0.2772255501
      4  C         0.6763200782   -0.1872546951    0.3614135150
      5  C        -0.4477550566    0.6703516406    0.2274923599
      6  C        -2.9637366822    0.2045097212   -0.2328732884
      7  C        -3.9043589979   -0.7971672637   -0.4656448833
      8  C        -3.5142716203   -2.1408826762   -0.4856336948
      9  C        -2.1923204792   -2.5094655569   -0.2429808893
     10  H        -3.2576780701    1.2507861524   -0.2546501557
     11  H        -4.9418258348   -0.5329275718   -0.6561208105
     12  H        -4.2498029603   -2.9117754676   -0.6996679204
     13  H        -1.9130208787   -3.5553858001   -0.3059665946
     14  C        -0.3198261008    2.0559243301    0.3330610275
     15  C         1.9169146460    0.3701043674    0.6865532568
     16  C         0.9350203327    2.5966267857    0.6060634390
     17  C         2.0372348760    1.7550847882    0.7950957008
[...]
  C     -0.49371199      0.65135962      0.25298150
  C     -2.95011617      0.17817084     -0.42470798
  C     -3.85683261     -0.82421199     -0.77806401
  C     -3.44907530     -2.16225544     -0.81294671
  C     -2.14231804     -2.52047409     -0.47059682
  H     -3.25299734      1.22119494     -0.43777634
  H     -4.87557903     -0.56304053     -1.04695325
  H     -4.15335309     -2.93184785     -1.11388528
  H     -1.84476212     -3.55799729     -0.52801074
  C     -0.39969296      2.02629484      0.45766087
  C      1.85616564      0.37109800      0.79611154
  C      0.83113287      2.57671192      0.82332613
  C      1.94685128      1.75113943      0.99897185
  H      2.73073578     -0.24791222      0.94746961
  H      2.89635372      2.18523758      1.29737620
  H     -1.27493866      2.66027519      0.34942590
  H      0.92096359      3.64678836      0.98188548
  C      0.96299797     -2.73541423      0.43210649
  C      0.45749038     -4.07562165      1.00680815
  C      2.40999019     -2.89628752      0.23007578
  C      1.74566405     -4.67784449      1.65891028
  C      2.86807460     -4.00653108      0.93225637
  H      1.77722308     -5.77264053      1.58410188
  H      1.76040595     -4.43096556      2.73069535
  C      4.21460870     -4.40468706      0.90480781
  C      5.10709623     -3.69887638      0.12701611
  C      3.29275550     -2.23008297     -0.68830266
  C      4.67061170     -2.63106481     -0.69988472
  H      4.54248782     -5.25657304      1.49273643
  H      6.15765685     -3.97589945      0.10229955
  C      5.57403501     -1.98989328     -1.58543618
  C      2.87418659     -1.25893059     -1.63405727
  C      3.77223473     -0.67585424     -2.50379572
  C      5.13973377     -1.02486914     -2.46659294
  H      1.82862932     -0.98612160     -1.67966018
  H      3.42363715      0.05508057     -3.22675552
  H      6.61713474     -2.29486389     -1.56908633
  H      5.83840144     -0.54708673     -3.14564704
  H      0.17449196     -4.74127621      0.17454736
  C     -0.66704580     -4.06544005      2.02392611
  C     -1.61198020     -5.10020434      2.02985727
  C     -0.71701121     -3.10979835      3.05210672
  C     -2.59437925     -5.16973166      3.01946824
  C     -1.69739357     -3.17615561      4.04046396
  H      0.00631713     -2.30090110      3.06763319
  C     -2.64134735     -4.20589016      4.02708646
  H     -1.72595380     -2.42169990      4.82083275
  H     -3.40634315     -4.25513430      4.79537697
  H     -1.58331030     -5.85655929      1.24865000
  H     -3.32086546     -5.97633914      3.00009299
  54
Step 6
  C     -1.65527923     -0.18176029     -0.04109079
  C     -1.23765310     -1.53636933     -0.01248671
  C      0.21700191     -1.59204597      0.25319746
  C      0.64146826     -0.17499733      0.39593927
  C     -0.49772570      0.66007682      0.25740951
  C     -2.96899492      0.16004211     -0.35604037
  C     -3.87676170     -0.85435341     -0.66636852
  C     -3.46212584     -2.19063050     -0.68492268
  C     -2.14560066     -2.53628477     -0.37342799
  H     -3.28100089      1.20062321     -0.37626272
  H     -4.90464825     -0.60431857     -0.91236284
  H     -4.16999567     -2.97019245     -0.95082572
  H     -1.84391224     -3.57490360     -0.41894672
  C     -0.40807820      2.03838427      0.44453214
  C      1.86039486      0.39676332      0.77718735
  C      0.82401462      2.59792120      0.78680257
  C      1.94495393      1.77890959      0.96014627
  H      2.74020787     -0.21565815      0.92980398
  H      2.89578875      2.22064831      1.24362884
  H     -1.28797086      2.66759243      0.34220044
  H      0.91012182      3.67062148      0.93346727
  C      0.97952622     -2.72327631      0.42933633
  C      0.46726037     -4.06570349      0.99560543
  C      2.42710739     -2.89063162      0.21953016
  C      1.75325462     -4.66885850      1.65577591
  C      2.88333529     -3.99797389      0.93343981
  H      1.78592971     -5.76139130      1.58294165
  H      1.76062598     -4.42200763      2.72520438
  C      4.23249929     -4.39451600      0.92007379
  C      5.12928233     -3.69536307      0.14403663
  C      3.31750612     -2.23247935     -0.70178546
  C      4.69812656     -2.63456772     -0.69827924
  H      4.55776563     -5.24285860      1.51560105
  H      6.17943403     -3.97525608      0.12856907
  C      5.61030166     -2.00052964     -1.58277323
  C      2.90873851     -1.27336966     -1.66489886
  C      3.81570755     -0.69911324     -2.53045496
  C      5.18418985     -1.04544621     -2.47671428
  H      1.86349556     -1.00305404     -1.72840637
  H      3.47232879      0.02369123     -3.26462960
  H      6.65382958     -2.30349081     -1.55450752
  H      5.89013141     -0.57449465     -3.15410287
  H      0.19418759     -4.72615015      0.15899530
  C     -0.67618320     -4.05924198      1.99591110
  C     -1.63543146     -5.07856439      1.96522527
  C     -0.73920906     -3.11817145      3.03406961
  C     -2.63988141     -5.15210587      2.93224925
  C     -1.74108118     -3.18742843      4.00004438
  H     -0.00541505     -2.31961917      3.07894188
  C     -2.69694985     -4.20449346      3.95314484
  H     -1.77661385     -2.44388147      4.79115503
  H     -3.47897711     -4.25596226      4.70497493
  H     -1.59878288     -5.82202054      1.17153448
  H     -3.37661374     -5.94900862      2.88457207
  54
Step 7
  C     -1.65934068     -0.18886557     -0.03846940
  C     -1.24120222     -1.54368798     -0.00833817
  C      0.21519020     -1.59759059      0.25025267
  C      0.63922127     -0.18021255      0.39058880
  C     -0.50095449      0.65433399      0.25432238
  C     -2.97443443      0.15214634     -0.34883590
  C     -3.88362214     -0.86305809     -0.65150909
  C     -3.46941820     -2.19941658     -0.66679560
  C     -2.15186849     -2.54470506     -0.36005795
  H     -3.28678345      1.19262934     -0.36990564
  H     -4.91261185     -0.61365319     -0.89399846
  H     -4.17905754     -2.97974049     -0.92598642
  H     -1.85236412     -3.58422177     -0.40200945
  C     -0.41139392      2.03301762      0.43926592
  C      1.85824833      0.39241035      0.76981529
  C      0.82120686      2.59325540      0.77810272
  C      1.94239636      1.77461619      0.95125474
  H      2.73776634     -0.21982256      0.92569046
  H      2.89337771      2.21668143      1.23399953
  H     -1.29155884      2.66207807      0.33775223
  H      0.90706953      3.66620969      0.92389658
  C      0.97927675     -2.72822759      0.42172509
  C      0.46410053     -4.07076788      0.98393419
  C      2.42622052     -2.89632921      0.21154621
  C      1.74870339     -4.68339373      1.63792220
  C      2.88032730     -4.00833610      0.92091519
  H      1.77967480     -5.77482009      1.55434767
  H      1.75841376     -4.44776583      2.70956100
  C      4.22995058     -4.40414346      0.91177789
  C      5.13020473     -3.69967947      0.14488402
  C      3.32127838     -2.23190745     -0.70103212
  C      4.70240496     -2.63312791     -0.69256890
  H      4.55269061     -5.25600541      1.50384250
  H      6.18033665     -3.97972094      0.13271026
  C      5.61935141     -1.99161905     -1.56716274
  C      2.91709391     -1.26742257     -1.66062490
  C      3.82866789     -0.68618260     -2.51651270
  C      5.19746305     -1.03065736     -2.45682471
  H      1.87191779     -0.99759344     -1.72958404
  H      3.48829361      0.04121124     -3.24769967
  H      6.66314066     -2.29309856     -1.53452653
  H      5.90700659     -0.55359250     -3.12630129
  H      0.18259644     -4.72638353      0.14704202
  C     -0.67651500     -4.05638201      1.98814867
  C     -1.63849756     -5.07317091      1.96631805
  C     -0.73515365     -3.10729030      3.01821375
  C     -2.63951522     -5.13876491      2.93734782
  C     -1.73397102     -3.16794768      3.98785996
  H     -0.00040778     -2.30892706      3.05455857
  C     -2.69143244     -4.18390866      3.95181500
  H     -1.76600886     -2.41789424      4.77312940
  H     -3.47092774     -4.22869482      4.70684140
  H     -1.60517399     -5.82225452      1.17763201
  H     -3.37774726     -5.93487545      2.89768951
  54
Step 8
  C     -1.66214712     -0.19160382     -0.04969312
  C     -1.24376141     -1.54629335     -0.01270611
  C      0.21239809     -1.59811270      0.24802765
  C      0.63472447     -0.18038774      0.38715024
  C     -0.50526417      0.65323107      0.24383716
  C     -2.97625164      0.14821013     -0.36545746
  C     -3.88484369     -0.86817945     -0.66583563
  C     -3.47091185     -2.20466561     -0.67276949
  C     -2.15433515     -2.54885219     -0.36065417
  H     -3.28837892      1.18862870     -0.39167152
  H     -4.91306395     -0.61976911     -0.91257128
  H     -4.18019895     -2.98621632     -0.92925142
  H     -1.85641854     -3.58911342     -0.39505581
  C     -0.41717771      2.03240015      0.42557304
  C      1.85170596      0.39378284      0.77070227
  C      0.81377890      2.59417119      0.76808254
  C      1.93449529      1.77652685      0.94871079
  H      2.73067150     -0.21765795      0.93275448
  H      2.88407350      2.21971370      1.23441915
  H     -1.29714341      2.66083282      0.31860688
  H      0.89846143      3.66757722      0.91121016
  C      0.97718781     -2.72836967      0.42000623
  C      0.45720649     -4.07052003      0.97813345
  C      2.42315521     -2.89904218      0.20863546
  C      1.74060154     -4.69864384      1.61861772
  C      2.87366683     -4.01851913      0.90894877
  H      1.76706716     -5.78879418      1.51788764
  H      1.75533974     -4.48041557      2.69387596
  C      4.22241913     -4.41702617      0.89988071
  C      5.12636082     -3.70761482      0.14198514
  C      3.32213800     -2.23005331     -0.69690678
  C      4.70248641     -2.63342370     -0.68757495
  H      4.54134445     -5.27507419      1.48504402
  H      6.17590111     -3.98975376      0.12997624
  C      5.62326417     -1.98635823     -1.55404965
  C      2.92227899     -1.25882292     -1.65140456
  C      3.83733548     -0.67237204     -2.50002856
  C      5.20560907     -1.01823310     -2.43795285
  H      1.87768377     -0.98743110     -1.72263862
  H      3.49992338      0.06020708     -3.22741539
  H      6.66652675     -2.28941427     -1.51998111
  H      5.91789063     -0.53673715     -3.10129530
  H      0.16167870     -4.71787395      0.13980932
  C     -0.67498995     -4.05143815      1.99282788
  C     -1.64524012     -5.06037115      1.97211020
  C     -0.71681339     -3.10963443      3.03031147
  C     -2.63836623     -5.12513842      2.95115736
  C     -1.70763127     -3.16982972      4.00839917
  H      0.02468741     -2.31759378      3.06733907
  C     -2.67362772     -4.17755711      3.97319733
  H     -1.72670806     -2.42543478      4.79950129
  H     -3.44673046     -4.22175380      4.73481867
  H     -1.62488838     -5.80366619      1.17748585
  H     -3.38354011     -5.91478929      2.91185048
  54
Step 9
  C     -1.66507280     -0.19429604     -0.05587783
  C     -1.24767789     -1.54943480     -0.01873156
  C      0.20832168     -1.60180150      0.24393988
  C      0.63058939     -0.18469771      0.38478426
  C     -0.50834125      0.64978720      0.23985661
  C     -2.97826671      0.14718770     -0.37349927
  C     -3.88767614     -0.86792594     -0.67558172
  C     -3.47505970     -2.20479873     -0.68201622
  C     -2.15932682     -2.55065640     -0.36802544
  H     -3.28883442      1.18805397     -0.39992657
  H     -4.91519314     -0.61834818     -0.92395493
  H     -4.18479393     -2.98561775     -0.93946543
  H     -1.86377393     -3.59149804     -0.40200885
  C     -0.41949803      2.02874707      0.42264559
  C      1.84731329      0.38793724      0.77141823
  C      0.81132288      2.58921518      0.76806350
  C      1.93103880      1.77050830      0.95043801
  H      2.72541371     -0.22459033      0.93456692
  H      2.88043754      2.21265748      1.23829807
  H     -1.29868019      2.65801492      0.31422271
  H      0.89670202      3.66246124      0.91181597
  C      0.97390498     -2.73205007      0.41432870
  C      0.45243323     -4.07353728      0.97260328
  C      2.41975698     -2.90238207      0.20375366
  C      1.73575342     -4.71016774      1.60393520
  C      2.86918301     -4.02494627      0.89998096
  H      1.76067191     -5.79920614      1.49021703
  H      1.75373353     -4.50520348      2.68169436
  C      4.21836563     -4.42192831      0.89413562
  C      5.12458955     -3.70802540      0.14327403
  C      3.32173512     -2.22906517     -0.69590648
  C      4.70246200     -2.63072435     -0.68300420
  H      4.53559452     -5.28254255      1.47642429
  H      6.17456097     -3.98861918      0.13417201
  C      5.62587255     -1.97898021     -1.54303483
  C      2.92451906     -1.25526818     -1.64882319
  C      3.84214450     -0.66427849     -2.49163584
  C      5.21061280     -1.00806343     -2.42501043
  H      1.87988992     -0.98544748     -1.72399777
  H      3.50642608      0.07006053     -3.21800296
  H      6.66935576     -2.28091846     -1.50588078
  H      5.92494795     -0.52306295     -3.08353092
  H      0.14754402     -4.71754175      0.13513083
  C     -0.67325503     -4.04948094      1.99505504
  C     -1.64542478     -5.05679588      1.98266149
  C     -0.70709713     -3.10531166      3.03064172
  C     -2.63260308     -5.11789408      2.96784260
  C     -1.69215738     -3.16190500      4.01500666
  H      0.03531936     -2.31383963      3.06156757
  C     -2.65986949     -4.16813460      3.98811620
  H     -1.70522903     -2.41570921      4.80452436
  H     -3.42822979     -4.20942728      4.75466745
  H     -1.63133654     -5.80158208      1.18936447
  H     -3.37948897     -5.90619611      2.93472796
  54
Step 10
  C     -1.66407412     -0.19357980     -0.05673253
  C     -1.24654352     -1.54863573     -0.01844115
  C      0.20921573     -1.60075816      0.24526062
  C      0.63131054     -0.18344230      0.38536493
  C     -0.50761754      0.65083523      0.23922882
  C     -2.97724046      0.14750232     -0.37485376
  C     -3.88647485     -0.86792170     -0.67648951
  C     -3.47361597     -2.20472673     -0.68204830
  C     -2.15788059     -2.55015409     -0.36752331
  H     -3.28782439      1.18834755     -0.40211091
  H     -4.91401468     -0.61869798     -0.92509390
  H     -4.18311200     -2.98587662     -0.93915144
  H     -1.86201442     -3.59095042     -0.40086839
  C     -0.41905312      2.02994647      0.42108404
  C      1.84756151      0.38961269      0.77303437
  C      0.81134868      2.59078045      0.76728581
  C      1.93093006      1.77229113      0.95140463
  H      2.72547866     -0.22268420      0.93766493
  H      2.87987294      2.21475135      1.24028579
  H     -1.29824877      2.65900580      0.31159859
  H      0.89650592      3.66411922      0.91046814
  C      0.97440867     -2.73127691      0.41602567
  C      0.45246704     -4.07301734      0.97353369
  C      2.42003750     -2.90232545      0.20494298
  C      1.73576115     -4.71090628      1.60386432
  C      2.86934733     -4.02521284      0.90052405
  H      1.76018712     -5.79973372      1.48765816
  H      1.75425851     -4.50841839      2.68205207
  C      4.21864065     -4.42205829      0.89444553
  C      5.12455612     -3.70834653      0.14303852
  C      3.32149883     -2.22929750     -0.69536473
  C      4.70212287     -2.63126353     -0.68346086
  H      4.53604709     -5.28269125      1.47661345
  H      6.17457906     -3.98877112      0.13370224
  C      5.62476261     -1.97998320     -1.54460630
  C      2.92353485     -1.25528912     -1.64769642
  C      3.84043595     -0.66471957     -2.49160258
  C      5.20882381     -1.00915698     -2.42642801
  H      1.87885187     -0.98501133     -1.72129442
  H      3.50422773      0.06979890     -3.21754884
  H      6.66820133     -2.28224746     -1.50852674
  H      5.92268371     -0.52461189     -3.08580023
  H      0.14736806     -4.71641527      0.13564440
  C     -0.67327993     -4.04961812      1.99567565
  C     -1.64503593     -5.05735825      1.98280952
  C     -0.70779418     -3.10573064      3.03154177
  C     -2.63254061     -5.11909896      2.96757948
  C     -1.69325470     -3.16292063      4.01547053
  H      0.03422450     -2.31388786      3.06289594
  C     -2.66059159     -4.16950655      3.98799292
  H     -1.70683722     -2.41695869      4.80518754
  H     -3.42924021     -4.21122350      4.75422444
  H     -1.63027317     -5.80205102      1.18945741
  H     -3.37905844     -5.90772520      2.93404142
  54
Step 11
  C     -1.66395280     -0.19315318     -0.05625347
  C     -1.24647234     -1.54824567     -0.01822735
  C      0.20936733     -1.60049429      0.24500443
  C      0.63157501     -0.18324179      0.38530084
  C     -0.50733093      0.65113621      0.23955557
  C     -2.97725798      0.14798587     -0.37370737
  C     -3.88666930     -0.86738869     -0.67499742
  C     -3.47385736     -2.20420254     -0.68089046
  C     -2.15798649     -2.54969810     -0.36699956
  H     -3.28778734      1.18885662     -0.40078954
  H     -4.91434781     -0.61812526     -0.92298694
  H     -4.18347726     -2.98532223     -0.93774564
  H     -1.86206504     -3.59048103     -0.40065706
  C     -0.41855813      2.03022059      0.42156156
  C      1.84799686      0.38961144      0.77275332
  C      0.81196906      2.59086018      0.76759220
  C      1.93153521      1.77223657      0.95131962
  H      2.72591267     -0.22283251      0.93689609
  H      2.88057223      2.21459184      1.24005635
  H     -1.29772442      2.65937546      0.31237151
  H      0.89730078      3.66417568      0.91085900
  C      0.97437915     -2.73111858      0.41568007
  C      0.45254316     -4.07281939      0.97342996
  C      2.42010450     -2.90206553      0.20499922
  C      1.73581139     -4.71044868      1.60419143
  C      2.86952183     -4.02438296      0.90134619
  H      1.76054178     -5.79921488      1.48737416
  H      1.75373676     -4.50862303      2.68249969
  C      4.21907731     -4.42049438      0.89614414
  C      5.12488687     -3.70693670      0.14452459
  C      3.32149292     -2.22930633     -0.69565875
  C      4.70227230     -2.63078040     -0.68313812
  H      4.53676821     -5.28042089      1.47920397
  H      6.17509190     -3.98672363      0.13596021
  C      5.62476142     -1.98004254     -1.54481987
  C      2.92330712     -1.25630942     -1.64893081
  C      3.84010636     -0.66627025     -2.49332295
  C      5.20858224     -1.01023634     -2.42764877
  H      1.87852608     -0.98652932     -1.72284242
  H      3.50377219      0.06745840     -3.22000756
  H      6.66829969     -2.28194282     -1.50841187
  H      5.92238101     -0.52621952     -3.08748244
  H      0.14796629     -4.71642892      0.13550593
  C     -0.67349359     -4.04973786      1.99509021
  C     -1.64472921     -5.05799019      1.98205402
  C     -0.70874677     -3.10585524      3.03095874
  C     -2.63251598     -5.12011638      2.96650583
  C     -1.69444498     -3.16347202      4.01460609
  H      0.03300371     -2.31378478      3.06256546
  C     -2.66134742     -4.17046031      3.98685333
  H     -1.70853476     -2.41753647      4.80434086
  H     -3.43024598     -4.21245041      4.75282166
  H     -1.62934532     -5.80277167      1.18878110
  H     -3.37864210     -5.90910372      2.93277102

======= END OF MOLDEN-FORMATTED INPUT FILE =======


        *************************************************************
        *                                                           *
        *  Thank you very much for using Q-Chem.  Have a nice day.  *
        *                                                           *
        *************************************************************


0 sent ACK to 0 
now end server 0 ... 
