Process 0 of 1 is on gollum112.lsa.umich.edu - thread support 0
initial socket setup ...start
initial socket setup ...done 
now start server 0 ... 
                  Welcome to Q-Chem
     A Quantum Leap Into The Future Of Chemistry


 Q-Chem 5.2 (devel), Q-Chem, Inc., Pleasanton, CA (2019)

 Yihan Shao,  Zhengting Gan,  E. Epifanovsky,  A. T. B. Gilbert,  M. Wormit,  
 J. Kussmann,  A. W. Lange,  A. Behn,  Jia Deng,  Xintian Feng,  D. Ghosh,  
 M. Goldey,  P. R. Horn,  L. D. Jacobson,  I. Kaliman,  T. Kus,  A. Landau,  
 Jie Liu,  E. I. Proynov,  R. M. Richard,  R. P. Steele,  E. J. Sundstrom,  
 H. L. Woodcock III,  P. M. Zimmerman,  D. Zuev,  B. Albrecht,  E. Alguire,  
 S. A. Baeppler,  D. Barton,  Z. Benda,  Y. A. Bernard,  E. J. Berquist,  
 K. B. Bravaya,  H. Burton,  D. Casanova,  Chun-Min Chang,  Yunqing Chen,  
 A. Chien,  K. D. Closser,  M. P. Coons,  S. Coriani,  S. Dasgupta,  
 A. L. Dempwolff,  M. Diedenhofen,  Hainam Do,  R. G. Edgar,  Po-Tung Fang,  
 S. Faraji,  S. Fatehi,  Qingguo Feng,  K. D. Fenk,  J. Fosso-Tande,  
 J. Gayvert,  Qinghui Ge,  A. Ghysels,  G. Gidofalvi,  J. Gomes,  
 J. Gonthier,  A. Gunina,  D. Hait,  M. W. D. Hanson-Heine,  
 P. H. P. Harbach,  A. W. Hauser,  J. E. Herr,  E. G. Hohenstein,  
 Z. C. Holden,  Kerwin Hui,  B. C. Huynh,  T.-C. Jagau,  Hyunjun Ji,  
 B. Kaduk,  K. Khistyaev,  Jaehoon Kim,  P. Klunzinger,  K. Koh,  
 D. Kosenkov,  L. Koulias,  T. Kowalczyk,  C. M. Krauter,  A. Kunitsa,  
 Ka Un Lao,  A. Laurent,  K. V. Lawler,  Joonho Lee,  D. Lefrancois,  
 S. Lehtola,  D. S. Levine,  Yi-Pei Li,  You-Sheng Lin,  Fenglai Liu,  
 E. Livshits,  A. Luenser,  P. Manohar,  E. Mansoor,  S. F. Manzer,  
 Shan-Ping Mao,  Yuezhi Mao,  N. Mardirossian,  A. V. Marenich,  
 T. Markovich,  L. A. Martinez-Martinez,  S. A. Maurer,  N. J. Mayhall,  
 S. C. McKenzie,  J.-M. Mewes,  A. F. Morrison,  J. W. Mullinax,  K. Nanda,  
 T. S. Nguyen-Beck,  R. Olivares-Amaya,  J. A. Parkhill,  T. M. Perrine,  
 F. Plasser,  P. Pokhilko,  S. Prager,  A. Prociuk,  E. Ramos,  D. R. Rehn,  
 F. Rob,  M. Schneider,  N. Sergueev,  S. M. Sharada,  S. Sharma,  
 D. W. Small,  T. Stauch,  T. Stein,  Yu-Chuan Su,  A. J. W. Thom,  
 A. Tkatchenko,  T. Tsuchimochi,  N. M. Tubman,  L. Vogt,  M. L. Vidal,  
 O. Vydrov,  M. A. Watson,  J. Wenzel,  M. de Wergifosse,  T. A. Wesolowski,  
 A. White,  J. Witte,  A. Yamada,  Jun Yang,  K. Yao,  S. Yeganeh,  
 S. R. Yost,  Zhi-Qiang You,  A. Zech,  Igor Ying Zhang,  Xing Zhang,  
 Yan Zhao,  Ying Zhu,  B. R. Brooks,  G. K. L. Chan,  C. J. Cramer,  
 M. S. Gordon,  W. J. Hehre,  A. Klamt,  M. W. Schmidt,  C. D. Sherrill,  
 D. G. Truhlar,  A. Aspuru-Guzik,  R. Baer,  A. T. Bell,  N. A. Besley,  
 Jeng-Da Chai,  A. E. DePrince, III,  R. A. DiStasio Jr.,  A. Dreuw,  
 B. D. Dunietz,  T. R. Furlani,  Chao-Ping Hsu,  Yousung Jung,  Jing Kong,  
 D. S. Lambrecht,  WanZhen Liang,  C. Ochsenfeld,  V. A. Rassolov,  
 L. V. Slipchenko,  J. E. Subotnik,  T. Van Voorhis,  J. M. Herbert,  
 A. I. Krylov,  P. M. W. Gill,  M. Head-Gordon

 Contributors to earlier versions of Q-Chem not listed above: 
 R. D. Adamson,  B. Austin,  J. Baker,  G. J. O. Beran,  K. Brandhorst,  
 S. T. Brown,  E. F. C. Byrd,  A. K. Chakraborty,  C.-L. Cheng,  
 Siu Hung Chien,  D. M. Chipman,  D. L. Crittenden,  H. Dachsel,  
 R. J. Doerksen,  A. D. Dutoi,  L. Fusti-Molnar,  W. A. Goddard III,  
 A. Golubeva-Zadorozhnaya,  S. R. Gwaltney,  G. Hawkins,  A. Heyden,  
 S. Hirata,  G. Kedziora,  F. J. Keil,  C. Kelley,  Jihan Kim,  R. A. King,  
 R. Z. Khaliullin,  P. P. Korambath,  W. Kurlancheek,  A. M. Lee,  M. S. Lee,  
 S. V. Levchenko,  Ching Yeh Lin,  D. Liotard,  R. C. Lochan,  I. Lotan,  
 P. E. Maslen,  N. Nair,  D. P. O'Neill,  D. Neuhauser,  E. Neuscamman,  
 C. M. Oana,  R. Olson,  B. Peters,  R. Peverati,  P. A. Pieniazek,  
 Y. M. Rhee,  J. Ritchie,  M. A. Rohrdanz,  E. Rosta,  N. J. Russ,  
 H. F. Schaefer III,  N. E. Schultz,  N. Shenvi,  A. C. Simmonett,  A. Sodt,  
 D. Stuck,  K. S. Thanthiriwatte,  V. Vanovschi,  Tao Wang,  A. Warshel,  
 C. F. Williams,  Q. Wu,  X. Xu,  W. Zhang

 Please cite Q-Chem as follows:
 Y. Shao et al., Mol. Phys. 113, 184-215 (2015)
 DOI: 10.1080/00268976.2014.952696

 Q-Chem 5.2.0 for Intel X86 EM64T Linux

 Parts of Q-Chem use Armadillo 8.300.2 (Tropical Shenanigans).
 http://arma.sourceforge.net/

 Q-Chem begins on Mon Dec  9 15:39:59 2019  

Host: gollum112.lsa.umich.edu
0

     Scratch files written to /scratch/craldaz/830075/qchem30631//
 Parallel job on  1  processors

Checking the input file for inconsistencies... 	...done.

--------------------------------------------------------------
User input:
--------------------------------------------------------------
 $rem
 JOBTYPE OPT
 EXCHANGE B3LYP
 SCF_ALGORITHM diis
 SCF_MAX_CYCLES 300
 BASIS 6-31G**
 GEOM_OPT_MAX_CYCLES 300
 scf_convergence 8
 SYM_IGNORE TRUE
 SYMMETRY   FALSE

molden_format true
 $end

$molecule
0 1
C       -1.4869883645     -0.0789919648     -0.2963109066                 
C       -1.0052986305     -1.3645978839     -0.1529720763                 
C        0.4319230160     -1.4151514926      0.2250560036                 
C        0.7083974112     -0.1055210958      0.3098786671                 
C       -0.3976424764      0.7806955935     -0.0010049659                 
C       -2.8018876934      0.2083408453     -0.6601469103                 
C       -3.6677867871     -0.8665636764     -0.8961268995                 
C       -3.2039058278     -2.1873086420     -0.7681943834                 
C       -1.8720922432     -2.4427997632     -0.3998664052                 
H       -3.1466951791      1.2291058824     -0.7600280685                 
H       -4.6948591169     -0.6799241886     -1.1815785430                 
H       -3.8767822382     -3.0134719784     -0.9582690571                 
H       -1.5454079188     -3.4649149216     -0.3215445192                 
C       -0.3181545983      2.1162868010      0.0251958277                 
C        1.9974446748      0.5078800907      0.7885464793                 
C        0.9677549546      2.7543422228      0.4096166147                 
C        2.0411814725      2.0194885724      0.7690539100                 
H        2.8784451421     -0.0930092260      1.0936540918                 
H        2.9604045011      2.5202512204      1.0548524550                 
H       -1.1784423862      2.7303555393     -0.2199842837                 
H        1.0367495915      3.8373625102      0.4136497460                 
C        1.1927789029     -2.4878799752      0.4261274411                 
C        0.7859988936     -3.6878482768      1.2511134216                 
C        2.5853392629     -2.7016388841     -0.0385233488                 
C        2.1194816037     -4.3777707294      1.6042247780                 
C        3.0956090348     -3.7827311290      0.6536353316                 
H        2.0152683641     -5.4809088469      1.5187423871                 
H        2.4917615888     -4.1111684879      2.6182196195                 
C        4.4090548003     -4.2052494377      0.4875693059                 
C        5.2154305397     -3.5533257282     -0.4428642709                 
C        3.3807082349     -2.0180672285     -1.0075777273                 
C        4.7176877143     -2.4851757361     -1.2054222877                 
H        4.7967236132     -5.0395129938      1.0582717087                 
H        6.2300221504     -3.8994802500     -0.5964634199                 
H        0.2114565302     -4.3586690216      0.5808068408                 
C       -0.0162707031     -3.3697793449      2.5191273108                 
H        0.5584679521     -2.6895447073      3.1836495367                 
H       -0.2402661176     -4.3087102927      3.0683723204                 
H       -0.9788931152     -2.8825834784      2.2635627239                 
O        5.5393098615     -1.9727217336     -2.1489669669                 
H        5.2735643472     -1.3177164969     -2.8061982985                 
C        2.8192178408     -0.9154565950     -1.8508045037                 
C        3.4285871050      0.3683707643     -1.9894832187                 
C        1.6237989605     -1.1749266129     -2.5479046506                 
C        1.0408143014     -0.2111208576     -3.3667074496                 
C        1.6340080010      1.0384177385     -3.5117577581                 
C        2.8191342101      1.3412186512     -2.8303423453                 
C        4.6008417627      0.7322338917     -1.2880088619                 
C        5.1596531984      2.0028475699     -1.4386003842                 
C        4.5623889607      2.9385287763     -2.2804732361                 
C        3.3959147765      2.6133668526     -2.9713954379                 
H        1.1408456021     -2.1411871951     -2.4660584635                 
H        0.1227647778     -0.4364169855     -3.8939188677                 
H        1.1606875648      1.7730152604     -4.1525337766                 
H        5.0918123433      0.0492034798     -0.6107296358                 
H        6.0587029717      2.2642106012     -0.8954335792                 
H        4.9999211575      3.9223082979     -2.3910551020                 
H        2.9402790805      3.3595219545     -3.6116308265                 
$end
--------------------------------------------------------------
 ----------------------------------------------------------------
             Standard Nuclear Orientation (Angstroms)
    I     Atom           X                Y                Z
 ----------------------------------------------------------------
    1      C      -1.4869883645    -0.0789919648    -0.2963109066
    2      C      -1.0052986305    -1.3645978839    -0.1529720763
    3      C       0.4319230160    -1.4151514926     0.2250560036
    4      C       0.7083974112    -0.1055210958     0.3098786671
    5      C      -0.3976424764     0.7806955935    -0.0010049659
    6      C      -2.8018876934     0.2083408453    -0.6601469103
    7      C      -3.6677867871    -0.8665636764    -0.8961268995
    8      C      -3.2039058278    -2.1873086420    -0.7681943834
    9      C      -1.8720922432    -2.4427997632    -0.3998664052
   10      H      -3.1466951791     1.2291058824    -0.7600280685
   11      H      -4.6948591169    -0.6799241886    -1.1815785430
   12      H      -3.8767822382    -3.0134719784    -0.9582690571
   13      H      -1.5454079188    -3.4649149216    -0.3215445192
   14      C      -0.3181545983     2.1162868010     0.0251958277
   15      C       1.9974446748     0.5078800907     0.7885464793
   16      C       0.9677549546     2.7543422228     0.4096166147
   17      C       2.0411814725     2.0194885724     0.7690539100
   18      H       2.8784451421    -0.0930092260     1.0936540918
   19      H       2.9604045011     2.5202512204     1.0548524550
   20      H      -1.1784423862     2.7303555393    -0.2199842837
   21      H       1.0367495915     3.8373625102     0.4136497460
   22      C       1.1927789029    -2.4878799752     0.4261274411
   23      C       0.7859988936    -3.6878482768     1.2511134216
   24      C       2.5853392629    -2.7016388841    -0.0385233488
   25      C       2.1194816037    -4.3777707294     1.6042247780
   26      C       3.0956090348    -3.7827311290     0.6536353316
   27      H       2.0152683641    -5.4809088469     1.5187423871
   28      H       2.4917615888    -4.1111684879     2.6182196195
   29      C       4.4090548003    -4.2052494377     0.4875693059
   30      C       5.2154305397    -3.5533257282    -0.4428642709
   31      C       3.3807082349    -2.0180672285    -1.0075777273
   32      C       4.7176877143    -2.4851757361    -1.2054222877
   33      H       4.7967236132    -5.0395129938     1.0582717087
   34      H       6.2300221504    -3.8994802500    -0.5964634199
   35      H       0.2114565302    -4.3586690216     0.5808068408
   36      C      -0.0162707031    -3.3697793449     2.5191273108
   37      H       0.5584679521    -2.6895447073     3.1836495367
   38      H      -0.2402661176    -4.3087102927     3.0683723204
   39      H      -0.9788931152    -2.8825834784     2.2635627239
   40      O       5.5393098615    -1.9727217336    -2.1489669669
   41      H       5.2735643472    -1.3177164969    -2.8061982985
   42      C       2.8192178408    -0.9154565950    -1.8508045037
   43      C       3.4285871050     0.3683707643    -1.9894832187
   44      C       1.6237989605    -1.1749266129    -2.5479046506
   45      C       1.0408143014    -0.2111208576    -3.3667074496
   46      C       1.6340080010     1.0384177385    -3.5117577581
   47      C       2.8191342101     1.3412186512    -2.8303423453
   48      C       4.6008417627     0.7322338917    -1.2880088619
   49      C       5.1596531984     2.0028475699    -1.4386003842
   50      C       4.5623889607     2.9385287763    -2.2804732361
   51      C       3.3959147765     2.6133668526    -2.9713954379
   52      H       1.1408456021    -2.1411871951    -2.4660584635
   53      H       0.1227647778    -0.4364169855    -3.8939188677
   54      H       1.1606875648     1.7730152604    -4.1525337766
   55      H       5.0918123433     0.0492034798    -0.6107296358
   56      H       6.0587029717     2.2642106012    -0.8954335792
   57      H       4.9999211575     3.9223082979    -2.3910551020
   58      H       2.9402790805     3.3595219545    -3.6116308265
 ----------------------------------------------------------------
 Nuclear Repulsion Energy =  3460.4323636609 hartrees
 There are      115 alpha and      115 beta electrons
 Requested basis set is 6-31G(d,p)
 There are 208 shells and 630 basis functions

 Total QAlloc Memory Limit   2000 MB
 Mega-Array Size       188 MB
 MEM_STATIC part       192 MB
 A cutoff of  1.0D-11 yielded  11589 shell pairs
 There are    116064 function pairs
 
 -------------------------------------------------------
 OpenMP Integral Computing Module                       
 Release: version 1.0, May 2013, Q-Chem Inc. Pittsburgh 
 -------------------------------------------------------
 Integral Job Info:
 Integral job number is                      11
 Integral operator is                         1
 short-range coefficients                     0
 long-range coefficients              100000000
 Omega coefficients                           0
 if combine SR and LR in K                    0
 Integral screening is                        0
 Integral computing path is                   2
 max size of driver memory is            800000
 size of driver memory is                593474
 size of scratch memory is              2361544
 max col of scratch BK array               1296
 max len of scratch array in speh3          155
 max len of scratch index in speh4           18
 max int batch size is                      520
 min int batch size is                       52
 fixed nKL is                                52
 max L of basis functions is                  2
 order of int derivative is                   0
 number of shells is                        208
 number of basis is                         630
 number of cartesian basis is               630
 number of contracted shell pairs         11589
 number of primitive shell pairs          33522
 maxK2 (contraction) of shell pair           36
 max number of K2 of shell pair               1
 max number of CS2 of shell pair           1237
 max number of PS2 of shell pair           6534
 mem total for path MDJ                  762028
 -------------------------------------------------------
 Smallest overlap matrix eigenvalue = 2.52E-04

 Scale SEOQF with 1.000000e-02/1.000000e-02/1.000000e-01

 Standard Electronic Orientation quadrupole field applied
 Nucleus-field energy     =    -0.0000000508 hartrees
 Guess from superposition of atomic densities
 Warning:  Energy on first SCF cycle will be non-variational
 SAD guess density has 230.000001 electrons

 -----------------------------------------------------------------------
  General SCF calculation program by
  Eric Jon Sundstrom, Paul Horn, Yuezhi Mao, Dmitri Zuev, Alec White,
  David Stuck, Shaama M.S., Shane Yost, Joonho Lee, David Small,
  Daniel Levine, Susi Lehtola, Hugh Burton, Evgeny Epifanovsky
 -----------------------------------------------------------------------
 Exchange:     0.2000 Hartree-Fock + 0.0800 Slater + 0.7200 B88
 Correlation:  0.1900 VWN1RPA + 0.8100 LYP
 Using SG-1 standard quadrature grid
 using 14 threads for integral computing
 -------------------------------------------------------
 OpenMP Integral computing Module                
 Release: version 1.0, May 2013, Q-Chem Inc. Pittsburgh 
 -------------------------------------------------------
 -------------------------------------------------------
 OpenMP BLAS3 based DFT computing Module                
 Release: version 1.0, May 2013, Q-Chem Inc. Pittsburgh 
 -------------------------------------------------------
 A restricted SCF calculation will be
 performed using DIIS
 SCF converges when DIIS error is below 1.0e-08
 ---------------------------------------
  Cycle       Energy         DIIS error
 ---------------------------------------
    1   -1355.8959315483      3.08e-02  
    2   -1346.7476677576      2.78e-03  
    3   -1346.6778222917      3.08e-03  
    4   -1347.1000077212      1.10e-03  
    5   -1347.1631314025      3.39e-04  
    6   -1347.1686676393      1.38e-04  
    7   -1347.1695736289      4.80e-05  
    8   -1347.1696652441      2.52e-05  
    9   -1347.1697004107      5.28e-06  
   10   -1347.1697018280      1.61e-06  
   11   -1347.1697019519      7.02e-07  
   12   -1347.1697019778      2.34e-07  
   13   -1347.1697019806      1.11e-07  
   14   -1347.1697019812      4.34e-08  
   15   -1347.1697019813      1.56e-08  
   16   -1347.1697019813      5.61e-09  Convergence criterion met
 ---------------------------------------
 SCF time:   CPU 1587.10s  wall 125.00s 
 SCF   energy in the final basis set =    -1347.1697019813
 Total energy in the final basis set =    -1347.1697019813
 
 --------------------------------------------------------------
 
                    Orbital Energies (a.u.)
 --------------------------------------------------------------
 
 Alpha MOs
 -- Occupied --
-19.1709 -10.2565 -10.2023 -10.2012 -10.2005 -10.1989 -10.1977 -10.1974
-10.1973 -10.1927 -10.1902 -10.1900 -10.1894 -10.1890 -10.1888 -10.1878
-10.1875 -10.1865 -10.1864 -10.1859 -10.1850 -10.1837 -10.1832 -10.1826
-10.1820 -10.1816 -10.1814 -10.1813 -10.1801 -10.1795 -10.1794 -10.1749
-10.1748 -10.1728  -1.0535  -0.8964  -0.8789  -0.8720  -0.8259  -0.8232
 -0.8167  -0.7952  -0.7845  -0.7629  -0.7494  -0.7433  -0.7411  -0.7274
 -0.7124  -0.7036  -0.6982  -0.6763  -0.6541  -0.6347  -0.6236  -0.6156
 -0.6087  -0.5916  -0.5834  -0.5801  -0.5709  -0.5563  -0.5448  -0.5262
 -0.5110  -0.5065  -0.5014  -0.4926  -0.4878  -0.4779  -0.4658  -0.4596
 -0.4534  -0.4438  -0.4393  -0.4382  -0.4358  -0.4243  -0.4200  -0.4182
 -0.4142  -0.4097  -0.4077  -0.4042  -0.4012  -0.3966  -0.3912  -0.3876
 -0.3858  -0.3763  -0.3745  -0.3645  -0.3577  -0.3528  -0.3498  -0.3399
 -0.3355  -0.3345  -0.3330  -0.3313  -0.3283  -0.3229  -0.3210  -0.3210
 -0.3112  -0.2919  -0.2843  -0.2682  -0.2570  -0.2436  -0.2320  -0.2221
 -0.2054  -0.2003  -0.1733
 -- Virtual --
 -0.0797  -0.0443  -0.0214  -0.0041   0.0014   0.0132   0.0227   0.0360
  0.0548   0.0714   0.0856   0.0893   0.0998   0.1014   0.1087   0.1122
  0.1172   0.1195   0.1234   0.1361   0.1420   0.1447   0.1495   0.1589
  0.1609   0.1685   0.1705   0.1717   0.1733   0.1761   0.1814   0.1826
  0.1894   0.1926   0.2015   0.2069   0.2081   0.2126   0.2167   0.2319
  0.2407   0.2473   0.2483   0.2537   0.2623   0.2631   0.2687   0.2714
  0.2776   0.2863   0.2962   0.2992   0.3026   0.3152   0.3211   0.3273
  0.3281   0.3332   0.3476   0.3598   0.3696   0.3865   0.3940   0.3949
  0.4117   0.4255   0.4311   0.4348   0.4458   0.4575   0.4649   0.4742
  0.4751   0.4873   0.4962   0.4993   0.5098   0.5102   0.5157   0.5212
  0.5238   0.5309   0.5321   0.5413   0.5431   0.5448   0.5483   0.5503
  0.5553   0.5570   0.5620   0.5643   0.5721   0.5764   0.5788   0.5844
  0.5861   0.5894   0.5946   0.5991   0.6012   0.6057   0.6070   0.6098
  0.6144   0.6145   0.6188   0.6211   0.6235   0.6274   0.6308   0.6347
  0.6426   0.6439   0.6463   0.6511   0.6535   0.6577   0.6590   0.6700
  0.6715   0.6727   0.6778   0.6864   0.6954   0.7028   0.7112   0.7179
  0.7331   0.7437   0.7525   0.7555   0.7663   0.7819   0.7881   0.7919
  0.7949   0.7982   0.8009   0.8075   0.8133   0.8155   0.8180   0.8196
  0.8246   0.8276   0.8301   0.8314   0.8364   0.8399   0.8463   0.8468
  0.8568   0.8590   0.8641   0.8657   0.8758   0.8779   0.8808   0.8835
  0.8900   0.8918   0.8963   0.9068   0.9124   0.9168   0.9189   0.9225
  0.9345   0.9362   0.9386   0.9459   0.9505   0.9638   0.9735   0.9816
  0.9870   0.9907   0.9992   1.0029   1.0124   1.0169   1.0284   1.0358
  1.0394   1.0485   1.0556   1.0605   1.0738   1.0768   1.0891   1.0968
  1.1035   1.1128   1.1333   1.1362   1.1474   1.1539   1.1579   1.1670
  1.1788   1.1808   1.1918   1.2075   1.2118   1.2203   1.2218   1.2328
  1.2416   1.2516   1.2610   1.2680   1.2775   1.2830   1.2881   1.2961
  1.3048   1.3075   1.3198   1.3385   1.3456   1.3543   1.3563   1.3608
  1.3721   1.3724   1.3764   1.3785   1.3965   1.4005   1.4050   1.4066
  1.4129   1.4168   1.4179   1.4220   1.4259   1.4344   1.4355   1.4441
  1.4513   1.4644   1.4687   1.4774   1.4867   1.5026   1.5219   1.5334
  1.5469   1.5571   1.5602   1.5743   1.5992   1.6101   1.6247   1.6266
  1.6349   1.6624   1.6824   1.6872   1.7030   1.7204   1.7337   1.7371
  1.7538   1.7643   1.7728   1.7746   1.7789   1.7919   1.7959   1.7991
  1.8088   1.8104   1.8181   1.8271   1.8392   1.8436   1.8549   1.8579
  1.8619   1.8675   1.8780   1.8802   1.8845   1.8878   1.8970   1.8993
  1.9048   1.9104   1.9182   1.9224   1.9298   1.9315   1.9334   1.9402
  1.9460   1.9510   1.9558   1.9622   1.9641   1.9724   1.9746   1.9818
  1.9837   1.9950   1.9974   2.0006   2.0119   2.0160   2.0207   2.0286
  2.0311   2.0396   2.0454   2.0486   2.0615   2.0683   2.0726   2.0874
  2.0936   2.0979   2.1045   2.1182   2.1352   2.1421   2.1558   2.1601
  2.1734   2.1753   2.1826   2.1976   2.1999   2.2141   2.2272   2.2408
  2.2455   2.2502   2.2708   2.2795   2.2813   2.2826   2.2871   2.2898
  2.3004   2.3090   2.3152   2.3184   2.3262   2.3342   2.3453   2.3486
  2.3552   2.3602   2.3723   2.3807   2.3812   2.3872   2.3945   2.3986
  2.4077   2.4099   2.4125   2.4146   2.4163   2.4259   2.4284   2.4322
  2.4416   2.4507   2.4545   2.4687   2.4727   2.4738   2.4817   2.4852
  2.4930   2.5014   2.5097   2.5159   2.5185   2.5301   2.5329   2.5374
  2.5481   2.5578   2.5641   2.5692   2.5733   2.5768   2.5829   2.5846
  2.5919   2.5987   2.6061   2.6077   2.6132   2.6246   2.6308   2.6350
  2.6392   2.6498   2.6551   2.6644   2.6659   2.6724   2.6873   2.6893
  2.6940   2.7067   2.7085   2.7157   2.7210   2.7260   2.7318   2.7423
  2.7521   2.7615   2.7656   2.7712   2.7759   2.7856   2.8061   2.8150
  2.8221   2.8351   2.8504   2.8588   2.8698   2.8816   2.9010   2.9179
  2.9219   2.9356   2.9559   2.9622   2.9919   2.9986   3.0281   3.0405
  3.0537   3.0762   3.0822   3.1268   3.1456   3.1695   3.1795   3.1891
  3.2019   3.2114   3.2263   3.2476   3.2535   3.2575   3.2622   3.2641
  3.2676   3.2789   3.3039   3.3085   3.3177   3.3362   3.3574   3.3616
  3.3951   3.4071   3.4110   3.4191   3.4293   3.4485   3.4599   3.4646
  3.4814   3.4957   3.5280   3.5448   3.7455   3.7845   3.8079   3.8772
  3.8985   4.0773   4.1111   4.1203   4.1409   4.1466   4.1558   4.1583
  4.1722   4.1910   4.1944   4.1961   4.2110   4.2506   4.2924   4.3173
  4.3479   4.3603   4.3835   4.4105   4.4334   4.4430   4.4944   4.5263
  4.5439   4.5554   4.5713   4.5938   4.6398   4.6937   4.7877   4.8590
  4.9023   4.9350   4.9716
 --------------------------------------------------------------
 
          Ground-State Mulliken Net Atomic Charges

     Atom                 Charge (a.u.)
  ----------------------------------------
      1 C                     0.063083
      2 C                     0.001744
      3 C                     0.076182
      4 C                     0.004565
      5 C                     0.096475
      6 C                    -0.112695
      7 C                    -0.100582
      8 C                    -0.092415
      9 C                    -0.146342
     10 H                     0.082072
     11 H                     0.079831
     12 H                     0.077816
     13 H                     0.073337
     14 C                    -0.181838
     15 C                    -0.145583
     16 C                    -0.085922
     17 C                    -0.080523
     18 H                     0.094497
     19 H                     0.080917
     20 H                     0.077611
     21 H                     0.077485
     22 C                    -0.070227
     23 C                    -0.113274
     24 C                     0.109456
     25 C                    -0.243017
     26 C                     0.039062
     27 H                     0.106407
     28 H                     0.118839
     29 C                    -0.126688
     30 C                    -0.101399
     31 C                    -0.035177
     32 C                     0.309575
     33 H                     0.083428
     34 H                     0.096021
     35 H                     0.112108
     36 C                    -0.308900
     37 H                     0.107888
     38 H                     0.098912
     39 H                     0.118117
     40 O                    -0.583903
     41 H                     0.329633
     42 C                    -0.017383
     43 C                     0.077897
     44 C                    -0.100023
     45 C                    -0.089410
     46 C                    -0.129530
     47 C                     0.122322
     48 C                    -0.154744
     49 C                    -0.091585
     50 C                    -0.091165
     51 C                    -0.137259
     52 H                     0.094211
     53 H                     0.090100
     54 H                     0.083857
     55 H                     0.101966
     56 H                     0.085460
     57 H                     0.082791
     58 H                     0.085921
  ----------------------------------------
  Sum of atomic charges =    -0.000000

 -----------------------------------------------------------------
                    Cartesian Multipole Moments
 -----------------------------------------------------------------
    Charge (ESU x 10^10)
                -0.0000
    Dipole Moment (Debye)
         X       0.3027      Y      -0.3180      Z      -0.4899
       Tot       0.6579
    Quadrupole Moments (Debye-Ang)
        XX    -187.0260     XY       2.7284     YY    -176.0810
        XZ       5.5066     YZ      -8.5136     ZZ    -190.9187
    Octopole Moments (Debye-Ang^2)
       XXX    -936.6652    XXY     174.9411    XYY    -284.5893
       YYY     427.7012    XXZ     132.2826    XYZ     -27.0622
       YYZ     130.8838    XZZ    -306.0945    YZZ     158.3888
       ZZZ     349.9172
    Hexadecapole Moments (Debye-Ang^3)
      XXXX  -10372.7321   XXXY     795.8162   XXYY   -2644.8686
      XYYY     642.3627   YYYY   -6185.4694   XXXZ    1280.4396
      XXYZ      97.5405   XYYZ     436.4123   YYYZ     429.0172
      XXZZ   -2326.1298   XYZZ     232.9372   YYZZ   -1607.4814
      XZZZ    1109.8917   YZZZ     536.1986   ZZZZ   -3263.2440
 -----------------------------------------------------------------
 Calculating analytic gradient of the SCF energy
 Gradient of SCF Energy
            1           2           3           4           5           6
    1   0.0186994   0.0220050   0.0743238  -0.1145611  -0.0276144   0.0039398
    2  -0.0108320   0.0647893   0.0217022  -0.1332412   0.0246233   0.0130084
    3   0.0060731  -0.0126435   0.0160395  -0.0278612  -0.0071613   0.0028376
            7           8           9          10          11          12
    1  -0.0054788  -0.0081543   0.0118558   0.0001630   0.0027871   0.0016069
    2  -0.0005881  -0.0046451  -0.0085999  -0.0024567  -0.0001405   0.0020578
    3  -0.0017205  -0.0007796   0.0047344   0.0004467   0.0004309   0.0001873
           13          14          15          16          17          18
    1  -0.0029519  -0.0462183   0.0540589   0.0620773  -0.0218928   0.0150041
    2   0.0057754  -0.0555289  -0.0390688   0.0027694   0.0795029  -0.0097543
    3  -0.0013624  -0.0151230   0.0228492   0.0193611  -0.0130446   0.0045631
           19          20          21          22          23          24
    1  -0.0014755  -0.0007865   0.0018827  -0.0427789   0.0079565   0.0067444
    2   0.0021299  -0.0022912  -0.0008072   0.0321407   0.0100144  -0.0230025
    3  -0.0007216  -0.0004315   0.0005958   0.0024739   0.0026609  -0.0058168
           25          26          27          28          29          30
    1  -0.0010764  -0.0188258  -0.0063627   0.0121790  -0.0003140  -0.0031829
    2   0.0083296   0.0227282  -0.0093272   0.0065086  -0.0060115   0.0037190
    3  -0.0041003  -0.0025137  -0.0044648   0.0031700   0.0085617  -0.0027256
           31          32          33          34          35          36
    1  -0.0067633   0.0306450  -0.0015745  -0.0020103  -0.0009936   0.0112675
    2  -0.0022991  -0.0107462   0.0017122  -0.0025009   0.0021904  -0.0030296
    3   0.0020093   0.0053576  -0.0008202   0.0033677  -0.0083505  -0.0003004
           37          38          39          40          41          42
    1   0.0058300  -0.0023846  -0.0081165  -0.0317261   0.0197295   0.0145734
    2   0.0067337  -0.0089572   0.0038303   0.0109626   0.0008592   0.0169245
    3   0.0061547   0.0034195  -0.0048783   0.0027297  -0.0122909   0.0092875
           43          44          45          46          47          48
    1  -0.0049087  -0.0193672  -0.0019728   0.0176595   0.0044441  -0.0150888
    2   0.0100264   0.0019091  -0.0176300   0.0189132  -0.0060801  -0.0204815
    3  -0.0071565  -0.0066190   0.0065145   0.0038504   0.0068220  -0.0006922
           49          50          51          52          53          54
    1   0.0032650   0.0175730  -0.0244954  -0.0020513   0.0020478  -0.0015954
    2   0.0221085  -0.0058590  -0.0141125   0.0014660   0.0007351  -0.0031641
    3  -0.0070278   0.0151767  -0.0110350  -0.0015067   0.0011386   0.0004401
           55          56          57          58
    1   0.0022575  -0.0021255  -0.0008201   0.0030925
    2   0.0043263   0.0003294  -0.0026406   0.0009696
    3  -0.0007348  -0.0018195   0.0007229   0.0017257
 Max gradient component =       1.332E-01
 RMS gradient           =       2.156E-02
 Gradient time:  CPU 349.12 s  wall 30.20 s
 Geometry Optimization Parameters
   NAtoms,    NIC,     NZ,  NCons,   NDum,   NFix, NCnnct, MaxDiis
       58     461       0       0       0       0       0       0


** GEOMETRY OPTIMIZATION IN DELOCALIZED INTERNAL COORDINATES **
   Searching for a Minimum

   Optimization Cycle:   1

                       Coordinates (Angstroms)
     ATOM                X               Y               Z
      1  C        -1.4869883645   -0.0789919648   -0.2963109066
      2  C        -1.0052986305   -1.3645978839   -0.1529720763
      3  C         0.4319230160   -1.4151514926    0.2250560036
      4  C         0.7083974112   -0.1055210958    0.3098786671
      5  C        -0.3976424764    0.7806955935   -0.0010049659
      6  C        -2.8018876934    0.2083408453   -0.6601469103
      7  C        -3.6677867871   -0.8665636764   -0.8961268995
      8  C        -3.2039058278   -2.1873086420   -0.7681943834
      9  C        -1.8720922432   -2.4427997632   -0.3998664052
     10  H        -3.1466951791    1.2291058824   -0.7600280685
     11  H        -4.6948591169   -0.6799241886   -1.1815785430
     12  H        -3.8767822382   -3.0134719784   -0.9582690571
     13  H        -1.5454079188   -3.4649149216   -0.3215445192
     14  C        -0.3181545983    2.1162868010    0.0251958277
     15  C         1.9974446748    0.5078800907    0.7885464793
     16  C         0.9677549546    2.7543422228    0.4096166147
     17  C         2.0411814725    2.0194885724    0.7690539100
     18  H         2.8784451421   -0.0930092260    1.0936540918
     19  H         2.9604045011    2.5202512204    1.0548524550
     20  H        -1.1784423862    2.7303555393   -0.2199842837
     21  H         1.0367495915    3.8373625102    0.4136497460
     22  C         1.1927789029   -2.4878799752    0.4261274411
     23  C         0.7859988936   -3.6878482768    1.2511134216
     24  C         2.5853392629   -2.7016388841   -0.0385233488
     25  C         2.1194816037   -4.3777707294    1.6042247780
     26  C         3.0956090348   -3.7827311290    0.6536353316
     27  H         2.0152683641   -5.4809088469    1.5187423871
     28  H         2.4917615888   -4.1111684879    2.6182196195
     29  C         4.4090548003   -4.2052494377    0.4875693059
     30  C         5.2154305397   -3.5533257282   -0.4428642709
     31  C         3.3807082349   -2.0180672285   -1.0075777273
     32  C         4.7176877143   -2.4851757361   -1.2054222877
     33  H         4.7967236132   -5.0395129938    1.0582717087
     34  H         6.2300221504   -3.8994802500   -0.5964634199
     35  H         0.2114565302   -4.3586690216    0.5808068408
     36  C        -0.0162707031   -3.3697793449    2.5191273108
     37  H         0.5584679521   -2.6895447073    3.1836495367
     38  H        -0.2402661176   -4.3087102927    3.0683723204
     39  H        -0.9788931152   -2.8825834784    2.2635627239
     40  O         5.5393098615   -1.9727217336   -2.1489669669
     41  H         5.2735643472   -1.3177164969   -2.8061982985
     42  C         2.8192178408   -0.9154565950   -1.8508045037
     43  C         3.4285871050    0.3683707643   -1.9894832187
     44  C         1.6237989605   -1.1749266129   -2.5479046506
     45  C         1.0408143014   -0.2111208576   -3.3667074496
     46  C         1.6340080010    1.0384177385   -3.5117577581
     47  C         2.8191342101    1.3412186512   -2.8303423453
     48  C         4.6008417627    0.7322338917   -1.2880088619
     49  C         5.1596531984    2.0028475699   -1.4386003842
     50  C         4.5623889607    2.9385287763   -2.2804732361
     51  C         3.3959147765    2.6133668526   -2.9713954379
     52  H         1.1408456021   -2.1411871951   -2.4660584635
     53  H         0.1227647778   -0.4364169855   -3.8939188677
     54  H         1.1606875648    1.7730152604   -4.1525337766
     55  H         5.0918123433    0.0492034798   -0.6107296358
     56  H         6.0587029717    2.2642106012   -0.8954335792
     57  H         4.9999211575    3.9223082979   -2.3910551020
     58  H         2.9402790805    3.3595219545   -3.6116308265
   Point Group: c1    Number of degrees of freedom:   168


   Energy is  -1347.169701981


 Attempting to generate delocalized internal coordinates
 Initial Hessian constructed with Jon Baker's OPTIMIZE code

168 Hessian modes will be used to form the next step
  Hessian Eigenvalues:
     0.004702    0.006732    0.008021    0.009529    0.011649    0.013153
     0.015681    0.016005    0.016515    0.016822    0.016941    0.018373
     0.018437    0.018821    0.019135    0.019721    0.019803    0.020021
     0.020177    0.020508    0.021012    0.021076    0.021500    0.021617
     0.021684    0.021700    0.021712    0.021760    0.021993    0.022030
     0.022138    0.022280    0.022305    0.022490    0.022597    0.022606
     0.022763    0.022789    0.022951    0.023066    0.023095    0.023141
     0.023245    0.023511    0.023550    0.023990    0.025548    0.026254
     0.031608    0.040227    0.041731    0.045610    0.056590    0.057536
     0.057875    0.064233    0.084727    0.088794    0.137507    0.159776
     0.159917    0.159974    0.159982    0.159989    0.159989    0.159992
     0.159993    0.159995    0.159996    0.159997    0.159998    0.159999
     0.159999    0.159999    0.160000    0.160000    0.160000    0.160000
     0.160000    0.160000    0.205259    0.219890    0.219998    0.219999
     0.220796    0.225304    0.225666    0.226074    0.226089    0.235099
     0.242309    0.244152    0.244862    0.245342    0.245827    0.249125
     0.249183    0.249278    0.249364    0.249707    0.249785    0.249922
     0.249978    0.249995    0.275451    0.290717    0.299635    0.304237
     0.310692    0.323274    0.323323    0.324583    0.324693    0.324796
     0.325364    0.326571    0.326851    0.327287    0.327333    0.333597
     0.337183    0.353705    0.353866    0.353934    0.355202    0.355590
     0.355593    0.355951    0.356385    0.356841    0.357036    0.357095
     0.357117    0.357143    0.357277    0.357479    0.360005    0.364934
     0.375718    0.391323    0.395977    0.397072    0.401827    0.409032
     0.412405    0.415428    0.426021    0.428467    0.435579    0.447376
     0.450606    0.452501    0.453667    0.454963    0.455550    0.456576
     0.456839    0.457075    0.463851    0.465753    0.467904    0.469915
     0.530818    0.543704    0.545946    0.547733    0.560217    0.594012

 Minimum search - taking simple RFO step
 Searching for Lamda that Minimizes Along All modes
 Value Taken    Lamda =  -0.10053192
 Calculated Step too Large.  Step scaled by  0.584705
 Step Taken.  Stepsize is  0.300000

                             Maximum     Tolerance    Cnvgd?
         Gradient           0.077071      0.000300      NO
         Displacement       0.095895      0.001200      NO
         Energy change     *********      0.000001      NO


 New Cartesian Coordinates Obtained by Inverse Iteration

 Displacement from previous Coordinates is:  2.931877
 ----------------------------------------------------------------
             Standard Nuclear Orientation (Angstroms)
    I     Atom           X                Y                Z
 ----------------------------------------------------------------
    1      C      -1.6081841679    -0.1073702518    -0.1548307768
    2      C      -1.0806567327    -1.3955109807    -0.0637225649
    3      C       0.3755445045    -1.3628926564     0.2632813616
    4      C       0.6265722974    -0.0000500249     0.3916696995
    5      C      -0.5381285253     0.8173169095     0.1421365487
    6      C      -2.9473281918     0.1210458672    -0.4743648075
    7      C      -3.7732466594    -0.9818786692    -0.7144644823
    8      C      -3.2567927900    -2.2851229218    -0.6378435042
    9      C      -1.9107804482    -2.4997522893    -0.3161489925
   10      H      -3.3412010865     1.1286936996    -0.5365263422
   11      H      -4.8170952941    -0.8301140083    -0.9646930433
   12      H      -3.9046932794    -3.1323366258    -0.8320159402
   13      H      -1.5387956946    -3.5131231551    -0.2764470681
   14      C      -0.5251434508     2.1707013807     0.2171016965
   15      C       1.8435364980     0.6558344898     0.8436692707
   16      C       0.7100111388     2.8359406556     0.5881234633
   17      C       1.8287340416     2.1196236654     0.8929803491
   18      H       2.7488011366     0.0959101716     1.1041225245
   19      H       2.7384425864     2.6364289882     1.1818286583
   20      H      -1.4180894321     2.7558877995     0.0212831746
   21      H       0.7294936309     3.9203545199     0.6369995043
   22      C       1.1849095287    -2.4439597946     0.4134038807
   23      C       0.7690690878    -3.6713068141     1.2119011099
   24      C       2.5800687836    -2.6603417040    -0.0605328044
   25      C       2.0998666633    -4.3710480849     1.5661556699
   26      C       3.0898395062    -3.7664983106     0.6247893218
   27      H       2.0037073782    -5.4662684118     1.4667672173
   28      H       2.4410324081    -4.1268814737     2.5898955906
   29      C       4.4014997422    -4.1980251666     0.4566600385
   30      C       5.2139425230    -3.5492887246    -0.4646253230
   31      C       3.3936291203    -1.9937216706    -1.0346882240
   32      C       4.7168786890    -2.4799486750    -1.2197490774
   33      H       4.7828708577    -5.0420338772     1.0202052205
   34      H       6.2283995467    -3.8940208256    -0.6293705977
   35      H       0.1993069180    -4.3338557502     0.5343953834
   36      C      -0.0548499884    -3.3691025438     2.4699906469
   37      H       0.5063331977    -2.7025906638     3.1467864434
   38      H      -0.2847769066    -4.3071499654     3.0038062713
   39      H      -1.0090422457    -2.8807744821     2.2158042449
   40      O       5.5482549474    -1.9813718535    -2.1595305137
   41      H       5.2135644030    -1.3227847134    -2.7780705826
   42      C       2.8999247197    -0.9032103374    -1.9301200382
   43      C       3.5667980235     0.3548560753    -2.0789455543
   44      C       1.7425611746    -1.1424284415    -2.6795512438
   45      C       1.2309431641    -0.1851596568    -3.5626742825
   46      C       1.8689151153     1.0346930584    -3.7189538289
   47      C       3.0351204713     1.3252335116    -2.9865775656
   48      C       4.7207762071     0.7027054033    -1.3324715439
   49      C       5.3323981689     1.9391689187    -1.4962051196
   50      C       4.8138303871     2.8752092339    -2.4014423194
   51      C       3.6764969787     2.5736369105    -3.1356464971
   52      H       1.2292553385    -2.0926477237    -2.5903765170
   53      H       0.3329125844    -0.4014893984    -4.1299960165
   54      H       1.4585056517     1.7656649619    -4.4074432676
   55      H       5.1448341039     0.0186454397    -0.6102023722
   56      H       6.2148413352     2.1819045281    -0.9149957824
   57      H       5.2963335587     3.8386483497    -2.5221398793
   58      H       3.2790121527     3.3114633660    -3.8243457318
 ----------------------------------------------------------------
 Nuclear Repulsion Energy =  3411.4120151762 hartrees
 There are      115 alpha and      115 beta electrons
 Applying Cartesian multipole field
    Component          Value
    ---------          -----
     (2,0,0)        1.00000E-12
     (0,2,0)        2.00000E-12
     (0,0,2)       -3.00000E-11
 Nucleus-field energy     =    -0.0000000551 hartrees
 Requested basis set is 6-31G(d,p)
 There are 208 shells and 630 basis functions
 A cutoff of  1.0D-11 yielded  11313 shell pairs
 There are    112621 function pairs
 Smallest overlap matrix eigenvalue = 2.59E-04
 Guess MOs from SCF MO coefficient file

 -----------------------------------------------------------------------
  General SCF calculation program by
  Eric Jon Sundstrom, Paul Horn, Yuezhi Mao, Dmitri Zuev, Alec White,
  David Stuck, Shaama M.S., Shane Yost, Joonho Lee, David Small,
  Daniel Levine, Susi Lehtola, Hugh Burton, Evgeny Epifanovsky
 -----------------------------------------------------------------------
 Exchange:     0.2000 Hartree-Fock + 0.0800 Slater + 0.7200 B88
 Correlation:  0.1900 VWN1RPA + 0.8100 LYP
 Using SG-1 standard quadrature grid
 using 14 threads for integral computing
 -------------------------------------------------------
 OpenMP Integral computing Module                
 Release: version 1.0, May 2013, Q-Chem Inc. Pittsburgh 
 -------------------------------------------------------
 -------------------------------------------------------
 OpenMP BLAS3 based DFT computing Module                
 Release: version 1.0, May 2013, Q-Chem Inc. Pittsburgh 
 -------------------------------------------------------
 A restricted SCF calculation will be
 performed using DIIS
 SCF converges when DIIS error is below 1.0e-08
 ---------------------------------------
  Cycle       Energy         DIIS error
 ---------------------------------------
    1   -1347.1761196719      6.13e-04  
    2   -1347.2106852173      1.96e-04  
    3   -1347.2065951754      3.36e-04  
    4   -1347.2127558903      5.86e-05  
    5   -1347.2129402328      1.56e-05  
    6   -1347.2129508328      7.92e-06  
    7   -1347.2129539540      2.55e-06  
    8   -1347.2129542423      1.24e-06  
    9   -1347.2129543213      3.39e-07  
   10   -1347.2129543272      1.32e-07  
   11   -1347.2129543281      5.32e-08  
   12   -1347.2129543282      2.57e-08  
   13   -1347.2129543283      6.92e-09  Convergence criterion met
 ---------------------------------------
 SCF time:   CPU 1288.69s  wall 100.00s 
 SCF   energy in the final basis set =    -1347.2129543283
 Total energy in the final basis set =    -1347.2129543283
 
 --------------------------------------------------------------
 
                    Orbital Energies (a.u.)
 --------------------------------------------------------------
 
 Alpha MOs
 -- Occupied --
-19.1710 -10.2532 -10.2065 -10.2038 -10.2032 -10.2025 -10.2012 -10.1987
-10.1973 -10.1913 -10.1910 -10.1905 -10.1903 -10.1901 -10.1898 -10.1898
-10.1896 -10.1895 -10.1892 -10.1888 -10.1884 -10.1841 -10.1838 -10.1836
-10.1833 -10.1830 -10.1830 -10.1823 -10.1807 -10.1805 -10.1799 -10.1789
-10.1774 -10.1754  -1.0573  -0.8892  -0.8774  -0.8707  -0.8268  -0.8255
 -0.8180  -0.7942  -0.7858  -0.7615  -0.7499  -0.7424  -0.7416  -0.7281
 -0.7165  -0.7037  -0.7014  -0.6756  -0.6556  -0.6338  -0.6227  -0.6147
 -0.6116  -0.5892  -0.5831  -0.5792  -0.5719  -0.5588  -0.5443  -0.5273
 -0.5126  -0.5084  -0.5025  -0.4901  -0.4886  -0.4798  -0.4659  -0.4601
 -0.4532  -0.4450  -0.4398  -0.4375  -0.4357  -0.4244  -0.4217  -0.4169
 -0.4143  -0.4117  -0.4077  -0.4041  -0.4009  -0.3955  -0.3934  -0.3928
 -0.3866  -0.3776  -0.3760  -0.3635  -0.3593  -0.3529  -0.3483  -0.3432
 -0.3379  -0.3373  -0.3362  -0.3323  -0.3280  -0.3249  -0.3234  -0.3213
 -0.3153  -0.2909  -0.2853  -0.2692  -0.2584  -0.2453  -0.2349  -0.2241
 -0.2067  -0.2042  -0.1769
 -- Virtual --
 -0.0787  -0.0447  -0.0200  -0.0080   0.0013   0.0135   0.0207   0.0349
  0.0526   0.0695   0.0874   0.0959   0.0996   0.1005   0.1080   0.1130
  0.1155   0.1203   0.1240   0.1360   0.1426   0.1458   0.1492   0.1606
  0.1616   0.1694   0.1709   0.1722   0.1743   0.1760   0.1806   0.1826
  0.1892   0.1911   0.1997   0.2050   0.2076   0.2111   0.2156   0.2303
  0.2378   0.2478   0.2522   0.2580   0.2582   0.2617   0.2708   0.2710
  0.2776   0.2877   0.2971   0.3008   0.3024   0.3132   0.3172   0.3237
  0.3250   0.3319   0.3460   0.3577   0.3679   0.3815   0.3917   0.3965
  0.4048   0.4207   0.4211   0.4364   0.4455   0.4584   0.4631   0.4768
  0.4786   0.4943   0.4969   0.5065   0.5087   0.5162   0.5175   0.5229
  0.5266   0.5323   0.5354   0.5425   0.5439   0.5466   0.5490   0.5507
  0.5564   0.5608   0.5640   0.5651   0.5738   0.5749   0.5800   0.5844
  0.5881   0.5902   0.5958   0.5992   0.6009   0.6042   0.6055   0.6085
  0.6108   0.6122   0.6159   0.6173   0.6202   0.6215   0.6268   0.6303
  0.6344   0.6357   0.6428   0.6447   0.6482   0.6502   0.6557   0.6599
  0.6631   0.6694   0.6721   0.6798   0.6908   0.7003   0.7013   0.7131
  0.7232   0.7317   0.7349   0.7408   0.7490   0.7557   0.7793   0.7836
  0.7896   0.7935   0.7953   0.7974   0.8077   0.8088   0.8158   0.8204
  0.8209   0.8253   0.8291   0.8309   0.8344   0.8374   0.8414   0.8442
  0.8516   0.8578   0.8613   0.8641   0.8710   0.8758   0.8778   0.8788
  0.8875   0.8910   0.8964   0.9046   0.9145   0.9157   0.9167   0.9229
  0.9286   0.9319   0.9403   0.9417   0.9474   0.9572   0.9699   0.9722
  0.9868   0.9896   0.9961   0.9996   1.0042   1.0135   1.0224   1.0339
  1.0374   1.0424   1.0499   1.0593   1.0630   1.0758   1.0828   1.0874
  1.0968   1.1050   1.1181   1.1321   1.1417   1.1482   1.1520   1.1551
  1.1597   1.1761   1.1878   1.1919   1.2031   1.2081   1.2150   1.2272
  1.2334   1.2500   1.2563   1.2629   1.2706   1.2759   1.2802   1.2857
  1.2935   1.3041   1.3078   1.3240   1.3397   1.3477   1.3502   1.3569
  1.3637   1.3712   1.3751   1.3756   1.3925   1.3953   1.4026   1.4050
  1.4113   1.4127   1.4157   1.4201   1.4231   1.4254   1.4309   1.4382
  1.4499   1.4542   1.4611   1.4692   1.4850   1.4959   1.5084   1.5234
  1.5437   1.5475   1.5546   1.5765   1.5887   1.6031   1.6155   1.6207
  1.6278   1.6505   1.6712   1.6863   1.7028   1.7184   1.7337   1.7411
  1.7491   1.7603   1.7649   1.7670   1.7736   1.7830   1.7886   1.7943
  1.8001   1.8051   1.8135   1.8210   1.8287   1.8417   1.8455   1.8559
  1.8612   1.8640   1.8747   1.8767   1.8811   1.8867   1.8893   1.8967
  1.8998   1.9043   1.9134   1.9153   1.9242   1.9286   1.9346   1.9376
  1.9437   1.9445   1.9468   1.9602   1.9649   1.9693   1.9708   1.9747
  1.9792   1.9929   1.9988   2.0028   2.0088   2.0128   2.0161   2.0230
  2.0281   2.0371   2.0436   2.0500   2.0579   2.0660   2.0713   2.0814
  2.0869   2.0945   2.1005   2.1189   2.1302   2.1384   2.1435   2.1622
  2.1672   2.1691   2.1805   2.1935   2.2062   2.2142   2.2184   2.2336
  2.2389   2.2495   2.2638   2.2677   2.2730   2.2804   2.2859   2.2873
  2.2954   2.3025   2.3083   2.3084   2.3240   2.3343   2.3414   2.3455
  2.3539   2.3631   2.3721   2.3773   2.3816   2.3841   2.3907   2.3929
  2.3952   2.4019   2.4089   2.4099   2.4114   2.4185   2.4206   2.4359
  2.4403   2.4474   2.4531   2.4638   2.4676   2.4740   2.4808   2.4870
  2.4957   2.4977   2.5051   2.5117   2.5123   2.5186   2.5296   2.5351
  2.5392   2.5499   2.5555   2.5647   2.5695   2.5723   2.5780   2.5818
  2.5843   2.5940   2.6011   2.6031   2.6108   2.6208   2.6256   2.6333
  2.6388   2.6430   2.6509   2.6558   2.6619   2.6675   2.6874   2.6943
  2.6955   2.7067   2.7122   2.7182   2.7206   2.7250   2.7317   2.7410
  2.7498   2.7581   2.7636   2.7694   2.7748   2.7804   2.8048   2.8128
  2.8214   2.8316   2.8434   2.8629   2.8678   2.8850   2.8932   2.9087
  2.9136   2.9304   2.9487   2.9548   2.9858   2.9931   3.0188   3.0388
  3.0493   3.0737   3.0817   3.1309   3.1399   3.1666   3.1800   3.1918
  3.1961   3.2057   3.2243   3.2432   3.2524   3.2555   3.2575   3.2585
  3.2645   3.2730   3.2937   3.3032   3.3257   3.3358   3.3513   3.3652
  3.3896   3.3932   3.4042   3.4193   3.4297   3.4465   3.4681   3.4723
  3.4839   3.4953   3.5179   3.5251   3.7452   3.7965   3.8048   3.8713
  3.8983   4.0905   4.1171   4.1195   4.1376   4.1432   4.1459   4.1489
  4.1513   4.1767   4.1901   4.1913   4.2001   4.2278   4.2735   4.2829
  4.3153   4.3531   4.3627   4.4001   4.4089   4.4337   4.4841   4.4948
  4.5223   4.5459   4.5598   4.5757   4.6351   4.6642   4.7830   4.8547
  4.8944   4.9219   4.9609
 --------------------------------------------------------------
 
          Ground-State Mulliken Net Atomic Charges

     Atom                 Charge (a.u.)
  ----------------------------------------
      1 C                     0.048906
      2 C                     0.024257
      3 C                     0.036079
      4 C                     0.036733
      5 C                     0.071176
      6 C                    -0.117083
      7 C                    -0.099498
      8 C                    -0.092847
      9 C                    -0.139907
     10 H                     0.081550
     11 H                     0.079963
     12 H                     0.078571
     13 H                     0.075343
     14 C                    -0.159175
     15 C                    -0.137225
     16 C                    -0.089080
     17 C                    -0.084639
     18 H                     0.090340
     19 H                     0.080413
     20 H                     0.079768
     21 H                     0.078293
     22 C                    -0.073541
     23 C                    -0.115218
     24 C                     0.108095
     25 C                    -0.242199
     26 C                     0.037211
     27 H                     0.107452
     28 H                     0.119357
     29 C                    -0.126005
     30 C                    -0.099610
     31 C                    -0.042583
     32 C                     0.304270
     33 H                     0.084005
     34 H                     0.097615
     35 H                     0.112866
     36 C                    -0.310534
     37 H                     0.107877
     38 H                     0.097537
     39 H                     0.120601
     40 O                    -0.573122
     41 H                     0.325863
     42 C                    -0.007903
     43 C                     0.051042
     44 C                    -0.096522
     45 C                    -0.090471
     46 C                    -0.127133
     47 C                     0.113320
     48 C                    -0.143430
     49 C                    -0.091554
     50 C                    -0.089686
     51 C                    -0.134961
     52 H                     0.095231
     53 H                     0.090922
     54 H                     0.085798
     55 H                     0.104150
     56 H                     0.087243
     57 H                     0.085140
     58 H                     0.086940
  ----------------------------------------
  Sum of atomic charges =     0.000000

 -----------------------------------------------------------------
                    Cartesian Multipole Moments
 -----------------------------------------------------------------
    Charge (ESU x 10^10)
                 0.0000
    Dipole Moment (Debye)
         X       0.2774      Y      -0.2482      Z      -0.5076
       Tot       0.6294
    Quadrupole Moments (Debye-Ang)
        XX    -187.6343     XY       3.2913     YY    -175.7634
        XZ       5.7429     YZ      -8.2041     ZZ    -190.6462
    Octopole Moments (Debye-Ang^2)
       XXX    -945.5858    XXY     178.8661    XYY    -282.9504
       YYY     424.1965    XXZ     138.7628    XYZ     -31.1810
       YYZ     130.1271    XZZ    -307.0328    YZZ     161.9232
       ZZZ     342.4372
    Hexadecapole Moments (Debye-Ang^3)
      XXXX  -10816.1065   XXXY     783.9834   XXYY   -2694.3266
      XYYY     593.8621   YYYY   -6183.8601   XXXZ    1513.3511
      XXYZ      70.1087   XYYZ     488.4381   YYYZ     412.5481
      XXZZ   -2467.9959   XYZZ     241.8511   YYZZ   -1638.7318
      XZZZ    1311.2219   YZZZ     491.2188   ZZZZ   -3454.6020
 -----------------------------------------------------------------
 Calculating analytic gradient of the SCF energy
 Gradient of SCF Energy
            1           2           3           4           5           6
    1   0.0099632   0.0057293   0.0409875  -0.0663968  -0.0133751   0.0008431
    2  -0.0095518   0.0375102   0.0149433  -0.0779473   0.0252482   0.0079229
    3   0.0027150  -0.0129301   0.0108963  -0.0123156  -0.0007880   0.0019979
            7           8           9          10          11          12
    1  -0.0026842  -0.0044135   0.0069919   0.0003280   0.0014981   0.0008480
    2  -0.0005432  -0.0035510  -0.0061612  -0.0016101  -0.0000788   0.0011475
    3  -0.0008187   0.0000681   0.0033812   0.0003899   0.0001080   0.0000410
           13          14          15          16          17          18
    1  -0.0017623  -0.0296856   0.0356517   0.0433510  -0.0205957   0.0073524
    2   0.0022760  -0.0360503  -0.0249338   0.0017030   0.0535400  -0.0039138
    3  -0.0008351  -0.0115128   0.0154277   0.0124619  -0.0061162   0.0026840
           19          20          21          22          23          24
    1  -0.0009676   0.0000207   0.0005459  -0.0256237   0.0064972   0.0033058
    2   0.0006075  -0.0007639  -0.0003522   0.0107431   0.0066966  -0.0156140
    3  -0.0003861  -0.0000168   0.0001108   0.0061344   0.0036593  -0.0085165
           25          26          27          28          29          30
    1  -0.0009754  -0.0110440  -0.0047611   0.0086047   0.0015491  -0.0029187
    2   0.0026286   0.0128805  -0.0050796   0.0045427  -0.0033936   0.0037290
    3  -0.0003910  -0.0005927  -0.0034481   0.0013702   0.0053481  -0.0028650
           31          32          33          34          35          36
    1  -0.0028248   0.0209233  -0.0005414  -0.0010281  -0.0013455   0.0077512
    2  -0.0010621  -0.0054537   0.0010455  -0.0020853   0.0022327  -0.0013072
    3  -0.0022272   0.0033506  -0.0006767   0.0024883  -0.0059290   0.0006996
           37          38          39          40          41          42
    1   0.0030741  -0.0016993  -0.0051905  -0.0253195   0.0135429   0.0143798
    2   0.0037287  -0.0048799   0.0025573   0.0081485  -0.0007527   0.0098436
    3   0.0033228   0.0014257  -0.0032335   0.0051727  -0.0076132   0.0029314
           43          44          45          46          47          48
    1  -0.0009662  -0.0104819  -0.0019452   0.0111714   0.0021281  -0.0097179
    2   0.0034232   0.0009408  -0.0114137   0.0123275  -0.0033546  -0.0146574
    3  -0.0051302  -0.0054742   0.0046063   0.0020315   0.0041698  -0.0018578
           49          50          51          52          53          54
    1   0.0029862   0.0101336  -0.0154087  -0.0008577   0.0011416  -0.0015329
    2   0.0132023  -0.0034658  -0.0076254   0.0012032   0.0006604  -0.0022520
    3  -0.0046519   0.0099418  -0.0078388  -0.0015619   0.0004264   0.0001557
           55          56          57          58
    1   0.0020705  -0.0010341  -0.0006576   0.0023847
    2   0.0026026   0.0000485  -0.0011740   0.0009445
    3  -0.0004190  -0.0009728   0.0002403   0.0013627
 Max gradient component =       7.795E-02
 RMS gradient           =       1.333E-02
 Gradient time:  CPU 329.20 s  wall 28.40 s
 Geometry Optimization Parameters
   NAtoms,    NIC,     NZ,  NCons,   NDum,   NFix, NCnnct, MaxDiis
       58     461       0       0       0       0       0       0

 Cartesian Hessian Update
 Hessian updated using BFGS update


** GEOMETRY OPTIMIZATION IN DELOCALIZED INTERNAL COORDINATES **
   Searching for a Minimum

   Optimization Cycle:   2

                       Coordinates (Angstroms)
     ATOM                X               Y               Z
      1  C        -1.6081841679   -0.1073702518   -0.1548307768
      2  C        -1.0806567327   -1.3955109807   -0.0637225649
      3  C         0.3755445045   -1.3628926564    0.2632813616
      4  C         0.6265722974   -0.0000500249    0.3916696995
      5  C        -0.5381285253    0.8173169095    0.1421365487
      6  C        -2.9473281918    0.1210458672   -0.4743648075
      7  C        -3.7732466594   -0.9818786692   -0.7144644823
      8  C        -3.2567927900   -2.2851229218   -0.6378435042
      9  C        -1.9107804482   -2.4997522893   -0.3161489925
     10  H        -3.3412010865    1.1286936996   -0.5365263422
     11  H        -4.8170952941   -0.8301140083   -0.9646930433
     12  H        -3.9046932794   -3.1323366258   -0.8320159402
     13  H        -1.5387956946   -3.5131231551   -0.2764470681
     14  C        -0.5251434508    2.1707013807    0.2171016965
     15  C         1.8435364980    0.6558344898    0.8436692707
     16  C         0.7100111388    2.8359406556    0.5881234633
     17  C         1.8287340416    2.1196236654    0.8929803491
     18  H         2.7488011366    0.0959101716    1.1041225245
     19  H         2.7384425864    2.6364289882    1.1818286583
     20  H        -1.4180894321    2.7558877995    0.0212831746
     21  H         0.7294936309    3.9203545199    0.6369995043
     22  C         1.1849095287   -2.4439597946    0.4134038807
     23  C         0.7690690878   -3.6713068141    1.2119011099
     24  C         2.5800687836   -2.6603417040   -0.0605328044
     25  C         2.0998666633   -4.3710480849    1.5661556699
     26  C         3.0898395062   -3.7664983106    0.6247893218
     27  H         2.0037073782   -5.4662684118    1.4667672173
     28  H         2.4410324081   -4.1268814737    2.5898955906
     29  C         4.4014997422   -4.1980251666    0.4566600385
     30  C         5.2139425230   -3.5492887246   -0.4646253230
     31  C         3.3936291203   -1.9937216706   -1.0346882240
     32  C         4.7168786890   -2.4799486750   -1.2197490774
     33  H         4.7828708577   -5.0420338772    1.0202052205
     34  H         6.2283995467   -3.8940208256   -0.6293705977
     35  H         0.1993069180   -4.3338557502    0.5343953834
     36  C        -0.0548499884   -3.3691025438    2.4699906469
     37  H         0.5063331977   -2.7025906638    3.1467864434
     38  H        -0.2847769066   -4.3071499654    3.0038062713
     39  H        -1.0090422457   -2.8807744821    2.2158042449
     40  O         5.5482549474   -1.9813718535   -2.1595305137
     41  H         5.2135644030   -1.3227847134   -2.7780705826
     42  C         2.8999247197   -0.9032103374   -1.9301200382
     43  C         3.5667980235    0.3548560753   -2.0789455543
     44  C         1.7425611746   -1.1424284415   -2.6795512438
     45  C         1.2309431641   -0.1851596568   -3.5626742825
     46  C         1.8689151153    1.0346930584   -3.7189538289
     47  C         3.0351204713    1.3252335116   -2.9865775656
     48  C         4.7207762071    0.7027054033   -1.3324715439
     49  C         5.3323981689    1.9391689187   -1.4962051196
     50  C         4.8138303871    2.8752092339   -2.4014423194
     51  C         3.6764969787    2.5736369105   -3.1356464971
     52  H         1.2292553385   -2.0926477237   -2.5903765170
     53  H         0.3329125844   -0.4014893984   -4.1299960165
     54  H         1.4585056517    1.7656649619   -4.4074432676
     55  H         5.1448341039    0.0186454397   -0.6102023722
     56  H         6.2148413352    2.1819045281   -0.9149957824
     57  H         5.2963335587    3.8386483497   -2.5221398793
     58  H         3.2790121527    3.3114633660   -3.8243457318
   Point Group: c1    Number of degrees of freedom:   168


   Energy is  -1347.212954328

 Hessian updated using BFGS update

166 Hessian modes will be used to form the next step
  Hessian Eigenvalues:
     0.004702    0.006769    0.008022    0.009456    0.011642    0.013234
     0.015697    0.016092    0.016591    0.016915    0.017036    0.018373
     0.018431    0.019119    0.019303    0.019702    0.019803    0.020033
     0.020295    0.020519    0.021013    0.021171    0.021594    0.021622
     0.021685    0.021699    0.021714    0.021759    0.021997    0.022030
     0.022138    0.022279    0.022307    0.022490    0.022600    0.022606
     0.022768    0.022789    0.022951    0.023066    0.023094    0.023141
     0.023245    0.023511    0.023550    0.024013    0.025843    0.026279
     0.029843    0.040355    0.041692    0.045594    0.056589    0.057532
     0.057785    0.064678    0.084723    0.088642    0.137562    0.148091
     0.159783    0.159919    0.159976    0.159982    0.159989    0.159990
     0.159992    0.159994    0.159996    0.159996    0.159998    0.159998
     0.159999    0.159999    0.160000    0.160000    0.160000    0.160180
     0.203500    0.208703    0.219945    0.220001    0.220172    0.220843
     0.225481    0.225734    0.226090    0.227845    0.235110    0.242477
     0.244243    0.244864    0.245646    0.246063    0.249126    0.249302
     0.249541    0.249694    0.249775    0.249905    0.249994    0.264112
     0.274801    0.290716    0.299655    0.309495    0.313668    0.320845
     0.323320    0.323446    0.324659    0.325029    0.325612    0.326575
     0.327162    0.327295    0.328027    0.333138    0.353057    0.353703
     0.353873    0.353934    0.355569    0.355592    0.355947    0.356359
     0.356784    0.356940    0.357061    0.357104    0.357136    0.357256
     0.357467    0.359963    0.363633    0.367294    0.375988    0.390632
     0.397042    0.399594    0.408977    0.411243    0.414227    0.425058
     0.427031    0.434199    0.439578    0.447512    0.450601    0.452336
     0.453675    0.455039    0.455645    0.456771    0.456976    0.459735
     0.463640    0.467093    0.469743    0.472582    0.527279    0.542627
     0.544443    0.555780    0.573453    0.673178

 Minimum search - taking simple RFO step
 Searching for Lamda that Minimizes Along All modes
 Value Taken    Lamda =  -0.06641276
 Calculated Step too Large.  Step scaled by  0.466566
 Step Taken.  Stepsize is  0.300000

                             Maximum     Tolerance    Cnvgd?
         Gradient           0.040696      0.000300      NO
         Displacement       0.097402      0.001200      NO
         Energy change     -0.043252      0.000001      NO


 New Cartesian Coordinates Obtained by Inverse Iteration

 Displacement from previous Coordinates is:  2.712060
 ----------------------------------------------------------------
             Standard Nuclear Orientation (Angstroms)
    I     Atom           X                Y                Z
 ----------------------------------------------------------------
    1      C      -1.5463974909    -0.0974945539    -0.2144402901
    2      C      -1.0741787780    -1.4154183529    -0.0622806140
    3      C       0.3944398265    -1.3921265299     0.2124874733
    4      C       0.7273468766    -0.0018762981     0.2465645323
    5      C      -0.4229430930     0.8165495054    -0.0083229257
    6      C      -2.8869363550     0.1587310833    -0.5080591476
    7      C      -3.7627503440    -0.9189392491    -0.6571457978
    8      C      -3.2994313646    -2.2351754028    -0.5199719837
    9      C      -1.9580331951    -2.4918135930    -0.2262818563
   10      H      -3.2446513470     1.1771332558    -0.6211036830
   11      H      -4.8084353861    -0.7374664161    -0.8853735113
   12      H      -3.9896648229    -3.0635699619    -0.6451190115
   13      H      -1.6255972057    -3.5187097309    -0.1379375712
   14      C      -0.3541120860     2.1866186985    -0.0153617585
   15      C       1.9438239026     0.6216614555     0.5829931513
   16      C       0.8949425783     2.8025075128     0.2569624636
   17      C       2.0033953415     2.0388926679     0.5533135366
   18      H       2.8295522696     0.0426672125     0.8297611757
   19      H       2.9525230234     2.5196928393     0.7710678417
   20      H      -1.2295892427     2.7986495059    -0.2103749200
   21      H       0.9642329158     3.8862138098     0.2415584459
   22      C       1.1987566152    -2.4936689667     0.4000154377
   23      C       0.7768925584    -3.7269228518     1.2082261723
   24      C       2.5902438350    -2.7043097988    -0.0515186880
   25      C       2.1138947715    -4.4242021519     1.5706056838
   26      C       3.1134506907    -3.8173157053     0.6287941564
   27      H       2.0324735718    -5.5149195187     1.4767612369
   28      H       2.4271770409    -4.1821143752     2.5980728679
   29      C       4.4308068512    -4.2280607911     0.4489545253
   30      C       5.2292282935    -3.5565997385    -0.4685621500
   31      C       3.3901785154    -2.0114212717    -1.0083152624
   32      C       4.7126982699    -2.4810584868    -1.2036683450
   33      H       4.8279407780    -5.0735665283     1.0018769591
   34      H       6.2494253777    -3.8764530315    -0.6515317806
   35      H       0.2200440781    -4.4015281580     0.5370644309
   36      C      -0.0675551009    -3.4224466714     2.4524609777
   37      H       0.4774107129    -2.7512256984     3.1277048816
   38      H      -0.2939861759    -4.3526201379     2.9901379328
   39      H      -1.0183063293    -2.9459465508     2.1921774244
   40      O       5.5438665566    -1.9643874314    -2.1364016588
   41      H       5.1348361399    -1.3016232029    -2.7038535973
   42      C       2.8698647789    -0.9092050940    -1.8722185333
   43      C       3.4919173955     0.3827989911    -1.9636496631
   44      C       1.7359930608    -1.1599129612    -2.6394958944
   45      C       1.1965666532    -0.1920132817    -3.5037101465
   46      C       1.7874150412     1.0500221727    -3.6144922062
   47      C       2.9350966362     1.3657876830    -2.8522011157
   48      C       4.6172064024     0.7588718051    -1.1796910880
   49      C       5.1775467737     2.0176672032    -1.2903924751
   50      C       4.6397045389     2.9672230362    -2.1812097340
   51      C       3.5356289350     2.6464673446    -2.9443163297
   52      H       1.2607603568    -2.1330393046    -2.5829944217
   53      H       0.3131307673    -0.4264017958    -4.0889743793
   54      H       1.3634167783     1.7918469486    -4.2845265234
   55      H       5.0477793927     0.0632644306    -0.4707654838
   56      H       6.0376279964     2.2753946213    -0.6803014771
   57      H       5.0862141021     3.9536134942    -2.2601164188
   58      H       3.1160806933     3.3867855741    -3.6188357788
 ----------------------------------------------------------------
 Nuclear Repulsion Energy =  3443.7636900283 hartrees
 There are      115 alpha and      115 beta electrons
 Applying Cartesian multipole field
    Component          Value
    ---------          -----
     (2,0,0)        1.00000E-12
     (0,2,0)        2.00000E-12
     (0,0,2)       -3.00000E-11
 Nucleus-field energy     =    -0.0000000492 hartrees
 Requested basis set is 6-31G(d,p)
 There are 208 shells and 630 basis functions
 A cutoff of  1.0D-11 yielded  11501 shell pairs
 There are    115224 function pairs
 Smallest overlap matrix eigenvalue = 2.60E-04
 Guess MOs from SCF MO coefficient file

 -----------------------------------------------------------------------
  General SCF calculation program by
  Eric Jon Sundstrom, Paul Horn, Yuezhi Mao, Dmitri Zuev, Alec White,
  David Stuck, Shaama M.S., Shane Yost, Joonho Lee, David Small,
  Daniel Levine, Susi Lehtola, Hugh Burton, Evgeny Epifanovsky
 -----------------------------------------------------------------------
 Exchange:     0.2000 Hartree-Fock + 0.0800 Slater + 0.7200 B88
 Correlation:  0.1900 VWN1RPA + 0.8100 LYP
 Using SG-1 standard quadrature grid
 using 14 threads for integral computing
 -------------------------------------------------------
 OpenMP Integral computing Module                
 Release: version 1.0, May 2013, Q-Chem Inc. Pittsburgh 
 -------------------------------------------------------
 -------------------------------------------------------
 OpenMP BLAS3 based DFT computing Module                
 Release: version 1.0, May 2013, Q-Chem Inc. Pittsburgh 
 -------------------------------------------------------
 A restricted SCF calculation will be
 performed using DIIS
 SCF converges when DIIS error is below 1.0e-08
 ---------------------------------------
  Cycle       Energy         DIIS error
 ---------------------------------------
    1   -1347.1917632215      6.11e-04  
    2   -1347.2299387360      1.55e-04  
    3   -1347.2269303261      2.89e-04  
    4   -1347.2313148147      5.62e-05  
    5   -1347.2314794768      1.66e-05  
    6   -1347.2314926269      7.00e-06  
    7   -1347.2314950233      2.79e-06  
    8   -1347.2314953885      1.18e-06  
    9   -1347.2314954626      2.95e-07  
   10   -1347.2314954666      1.32e-07  
   11   -1347.2314954674      5.55e-08  
   12   -1347.2314954675      1.56e-08  
   13   -1347.2314954676      5.13e-09  Convergence criterion met
 ---------------------------------------
 SCF time:   CPU 1333.61s  wall 104.00s 
 SCF   energy in the final basis set =    -1347.2314954676
 Total energy in the final basis set =    -1347.2314954676
 
 --------------------------------------------------------------
 
                    Orbital Energies (a.u.)
 --------------------------------------------------------------
 
 Alpha MOs
 -- Occupied --
-19.1724 -10.2517 -10.2065 -10.2032 -10.2028 -10.2026 -10.2011 -10.1994
-10.1990 -10.1925 -10.1923 -10.1917 -10.1912 -10.1910 -10.1904 -10.1901
-10.1900 -10.1896 -10.1893 -10.1889 -10.1887 -10.1856 -10.1842 -10.1834
-10.1829 -10.1824 -10.1817 -10.1802 -10.1796 -10.1793 -10.1787 -10.1781
-10.1753 -10.1734  -1.0594  -0.8866  -0.8754  -0.8694  -0.8307  -0.8252
 -0.8177  -0.7935  -0.7860  -0.7597  -0.7509  -0.7419  -0.7410  -0.7304
 -0.7190  -0.7036  -0.7023  -0.6753  -0.6549  -0.6323  -0.6214  -0.6136
 -0.6130  -0.5866  -0.5839  -0.5786  -0.5723  -0.5604  -0.5431  -0.5281
 -0.5131  -0.5090  -0.5030  -0.4900  -0.4859  -0.4812  -0.4657  -0.4599
 -0.4530  -0.4453  -0.4395  -0.4363  -0.4339  -0.4244  -0.4218  -0.4164
 -0.4142  -0.4120  -0.4075  -0.4038  -0.4019  -0.3979  -0.3970  -0.3944
 -0.3859  -0.3771  -0.3758  -0.3626  -0.3609  -0.3527  -0.3468  -0.3456
 -0.3396  -0.3383  -0.3376  -0.3325  -0.3282  -0.3269  -0.3239  -0.3189
 -0.3165  -0.2926  -0.2857  -0.2691  -0.2577  -0.2449  -0.2357  -0.2261
 -0.2075  -0.2035  -0.1800
 -- Virtual --
 -0.0756  -0.0449  -0.0183  -0.0099   0.0016   0.0165   0.0219   0.0335
  0.0534   0.0711   0.0883   0.0955   0.0978   0.1044   0.1081   0.1136
  0.1159   0.1207   0.1255   0.1351   0.1432   0.1469   0.1493   0.1611
  0.1619   0.1698   0.1712   0.1741   0.1747   0.1773   0.1808   0.1835
  0.1891   0.1927   0.1977   0.2067   0.2098   0.2145   0.2180   0.2290
  0.2349   0.2458   0.2515   0.2560   0.2606   0.2629   0.2704   0.2717
  0.2767   0.2889   0.2995   0.3025   0.3088   0.3127   0.3163   0.3196
  0.3253   0.3308   0.3445   0.3576   0.3678   0.3808   0.3903   0.3971
  0.4023   0.4136   0.4175   0.4330   0.4436   0.4583   0.4641   0.4733
  0.4802   0.4910   0.4928   0.5058   0.5095   0.5153   0.5204   0.5220
  0.5300   0.5323   0.5341   0.5410   0.5448   0.5469   0.5492   0.5498
  0.5571   0.5592   0.5622   0.5658   0.5719   0.5740   0.5775   0.5830
  0.5876   0.5899   0.5976   0.5981   0.5997   0.6030   0.6050   0.6099
  0.6126   0.6137   0.6164   0.6174   0.6208   0.6233   0.6260   0.6305
  0.6393   0.6461   0.6475   0.6492   0.6509   0.6548   0.6559   0.6606
  0.6651   0.6737   0.6792   0.6870   0.6992   0.7028   0.7096   0.7140
  0.7274   0.7340   0.7424   0.7494   0.7597   0.7774   0.7830   0.7887
  0.7921   0.7975   0.7980   0.8049   0.8103   0.8131   0.8169   0.8217
  0.8249   0.8295   0.8308   0.8337   0.8358   0.8409   0.8435   0.8476
  0.8533   0.8587   0.8617   0.8644   0.8713   0.8760   0.8796   0.8852
  0.8893   0.8920   0.8959   0.9065   0.9127   0.9157   0.9230   0.9237
  0.9327   0.9352   0.9390   0.9479   0.9584   0.9657   0.9749   0.9817
  0.9846   0.9948   0.9975   1.0016   1.0140   1.0206   1.0318   1.0428
  1.0470   1.0515   1.0584   1.0599   1.0711   1.0808   1.0857   1.0948
  1.1016   1.1112   1.1283   1.1364   1.1445   1.1533   1.1594   1.1691
  1.1767   1.1820   1.1935   1.1987   1.2080   1.2091   1.2217   1.2362
  1.2404   1.2496   1.2588   1.2668   1.2763   1.2808   1.2823   1.2848
  1.2933   1.3087   1.3165   1.3330   1.3422   1.3458   1.3510   1.3592
  1.3699   1.3730   1.3768   1.3856   1.3916   1.3922   1.4029   1.4065
  1.4134   1.4155   1.4202   1.4222   1.4238   1.4257   1.4337   1.4377
  1.4490   1.4622   1.4751   1.4760   1.4864   1.4995   1.5104   1.5275
  1.5408   1.5540   1.5601   1.5786   1.5906   1.6033   1.6107   1.6178
  1.6327   1.6469   1.6709   1.6893   1.7077   1.7230   1.7366   1.7486
  1.7515   1.7624   1.7662   1.7722   1.7769   1.7835   1.7846   1.7911
  1.7994   1.8074   1.8183   1.8209   1.8309   1.8421   1.8484   1.8574
  1.8638   1.8697   1.8730   1.8783   1.8847   1.8878   1.8930   1.8948
  1.9060   1.9093   1.9112   1.9190   1.9282   1.9311   1.9398   1.9435
  1.9454   1.9525   1.9553   1.9627   1.9688   1.9760   1.9790   1.9815
  1.9880   1.9997   2.0029   2.0064   2.0117   2.0175   2.0233   2.0306
  2.0358   2.0416   2.0489   2.0558   2.0672   2.0710   2.0728   2.0816
  2.0873   2.1034   2.1063   2.1248   2.1315   2.1390   2.1495   2.1648
  2.1703   2.1760   2.1940   2.1991   2.2069   2.2192   2.2196   2.2365
  2.2434   2.2547   2.2603   2.2703   2.2742   2.2853   2.2926   2.2954
  2.3002   2.3043   2.3063   2.3164   2.3237   2.3335   2.3445   2.3456
  2.3542   2.3676   2.3763   2.3791   2.3840   2.3844   2.3877   2.3905
  2.3975   2.4035   2.4071   2.4105   2.4168   2.4200   2.4238   2.4380
  2.4449   2.4520   2.4603   2.4617   2.4702   2.4720   2.4843   2.4896
  2.4946   2.5015   2.5104   2.5143   2.5154   2.5217   2.5317   2.5350
  2.5474   2.5501   2.5544   2.5624   2.5726   2.5790   2.5809   2.5847
  2.5903   2.5959   2.6024   2.6103   2.6124   2.6235   2.6251   2.6375
  2.6399   2.6418   2.6582   2.6607   2.6687   2.6749   2.6897   2.6957
  2.6978   2.7078   2.7160   2.7188   2.7272   2.7303   2.7403   2.7476
  2.7550   2.7561   2.7670   2.7735   2.7788   2.7944   2.8022   2.8261
  2.8290   2.8415   2.8472   2.8661   2.8752   2.8912   2.8985   2.9079
  2.9141   2.9363   2.9437   2.9588   2.9911   2.9960   3.0188   3.0408
  3.0499   3.0746   3.0853   3.1316   3.1433   3.1732   3.1806   3.1981
  3.2048   3.2132   3.2299   3.2418   3.2524   3.2545   3.2583   3.2629
  3.2727   3.2773   3.2963   3.3021   3.3318   3.3396   3.3493   3.3673
  3.3873   3.3934   3.4062   3.4179   3.4383   3.4548   3.4780   3.4803
  3.4825   3.5027   3.5076   3.5244   3.7431   3.7908   3.8259   3.8690
  3.9085   4.0899   4.1009   4.1121   4.1362   4.1412   4.1497   4.1606
  4.1746   4.1826   4.1934   4.1984   4.2117   4.2391   4.2834   4.3229
  4.3395   4.3617   4.3738   4.3983   4.4261   4.4424   4.4902   4.5198
  4.5427   4.5478   4.5760   4.5962   4.6389   4.6751   4.7832   4.8598
  4.8951   4.9310   4.9634
 --------------------------------------------------------------
 
          Ground-State Mulliken Net Atomic Charges

     Atom                 Charge (a.u.)
  ----------------------------------------
      1 C                     0.036992
      2 C                     0.046717
      3 C                    -0.001394
      4 C                     0.067844
      5 C                     0.056055
      6 C                    -0.121645
      7 C                    -0.098030
      8 C                    -0.093824
      9 C                    -0.139658
     10 H                     0.081082
     11 H                     0.080125
     12 H                     0.079112
     13 H                     0.078574
     14 C                    -0.144230
     15 C                    -0.144448
     16 C                    -0.094037
     17 C                    -0.077484
     18 H                     0.087302
     19 H                     0.079604
     20 H                     0.078693
     21 H                     0.076805
     22 C                    -0.055619
     23 C                    -0.116788
     24 C                     0.098101
     25 C                    -0.243958
     26 C                     0.039587
     27 H                     0.107650
     28 H                     0.119774
     29 C                    -0.129217
     30 C                    -0.099200
     31 C                    -0.030762
     32 C                     0.294343
     33 H                     0.084193
     34 H                     0.098329
     35 H                     0.112290
     36 C                    -0.312664
     37 H                     0.108480
     38 H                     0.097609
     39 H                     0.121262
     40 O                    -0.566516
     41 H                     0.321965
     42 C                    -0.026011
     43 C                     0.050233
     44 C                    -0.093999
     45 C                    -0.089547
     46 C                    -0.123340
     47 C                     0.115022
     48 C                    -0.139648
     49 C                    -0.092797
     50 C                    -0.090385
     51 C                    -0.130503
     52 H                     0.095994
     53 H                     0.091593
     54 H                     0.086008
     55 H                     0.103394
     56 H                     0.088002
     57 H                     0.086190
     58 H                     0.086780
  ----------------------------------------
  Sum of atomic charges =     0.000000

 -----------------------------------------------------------------
                    Cartesian Multipole Moments
 -----------------------------------------------------------------
    Charge (ESU x 10^10)
                 0.0000
    Dipole Moment (Debye)
         X       0.1266      Y      -0.1295      Z      -0.4689
       Tot       0.5026
[...]
  H      4.85313992     -4.99820914      1.06495131
  H      6.26543019     -3.79289745     -0.61907720
  H      0.33786107     -4.43689723      0.35489769
  C     -0.20849674     -3.61258197      2.28222336
  H      0.19831563     -2.91942027      3.02568038
  H     -0.34473886     -4.58548703      2.76770381
  H     -1.19084548     -3.24491272      1.98861350
  O      5.54223067     -1.92322288     -2.11718539
  H      5.09034057     -1.21543378     -2.59920482
  C      2.87285560     -0.92073184     -1.90085609
  C      3.49325016      0.36614363     -2.07570860
  C      1.81257651     -1.26728432     -2.72385555
  C      1.31554892     -0.38742256     -3.70766818
  C      1.89525342      0.84640989     -3.89072227
  C      2.99269974      1.25128304     -3.09000471
  C      4.58577668      0.81492568     -1.27684589
  C      5.15829368      2.04979374     -1.47888163
  C      4.66823487      2.91308348     -2.48755021
  C      3.60785902      2.52046212     -3.26941261
  H      1.35378699     -2.24342949     -2.60712464
  H      0.47879509     -0.69812079     -4.32581067
  H      1.52351592      1.52633169     -4.65245013
  H      4.96070073      0.16895232     -0.49059818
  H      5.98959547      2.36709786     -0.85624342
  H      5.12901880      3.88491074     -2.63761453
  H      3.21886745      3.17926374     -4.04147431
  58
Step 10
  C     -1.54958297     -0.03553627     -0.05789219
  C     -1.07587104     -1.37015962      0.04303278
  C      0.38571261     -1.34582347      0.28357485
  C      0.74320308      0.08704277      0.36421448
  C     -0.42961386      0.86842703      0.20159609
  C     -2.87637168      0.23312201     -0.38988739
  C     -3.74316514     -0.83179714     -0.64276031
  C     -3.27566659     -2.14970369     -0.58744554
  C     -1.94630628     -2.42410021     -0.25956566
  H     -3.22988205      1.25774080     -0.46591354
  H     -4.78009285     -0.63698483     -0.90056425
  H     -3.95171738     -2.97078863     -0.80810352
  H     -1.60316981     -3.45308016     -0.25142532
  C     -0.39858492      2.25274678      0.36269572
  C      1.93047462      0.71154453      0.75842465
  C      0.80578909      2.86759569      0.71164227
  C      1.95662856      2.09922582      0.91981465
  H      2.82344579      0.12822425      0.95243298
  H      2.88279751      2.58599579      1.21003887
  H     -1.30165192      2.84457968      0.23981691
  H      0.84582326      3.94525879      0.84146166
  C      1.20861342     -2.43594155      0.43505101
  C      0.77131984     -3.75619651      1.10286698
  C      2.63430936     -2.58495634      0.07421633
  C      2.11401593     -4.36266407      1.60317827
  C      3.15689331     -3.71283865      0.74169656
  H      2.13344559     -5.45554990      1.53141290
  H      2.25362462     -4.11466861      2.66454762
  C      4.46041654     -4.14580386      0.52862330
  C      5.24742050     -3.49026605     -0.40785233
  C      3.41200338     -1.93221250     -0.92794520
  C      4.71755540     -2.42702612     -1.15177426
  H      4.85169914     -5.00597930      1.06485265
  H      6.25770404     -3.81473019     -0.63321016
  H      0.35991455     -4.43910175      0.34350522
  C     -0.22249234     -3.63130617      2.26669533
  H      0.15976167     -2.92921520      3.01460229
  H     -0.34480255     -4.60637957      2.75130217
  H     -1.20827732     -3.28457535      1.96069645
  O      5.53625114     -1.94846225     -2.13208351
  H      5.08975824     -1.23407189     -2.60955798
  C      2.87430601     -0.91567644     -1.88611221
  C      3.49650651      0.36952552     -2.07022745
  C      1.79995612     -1.25805084     -2.69230136
  C      1.29256197     -0.37760129     -3.67039732
  C      1.87563737      0.85290796     -3.86443456
  C      2.98569706      1.25482159     -3.07954627
  C      4.60143524      0.81621441     -1.28717103
  C      5.17620793      2.04818282     -1.49991471
  C      4.67597089      2.91134284     -2.50373625
  C      3.60335604      2.52129015     -3.26991180
  H      1.33770163     -2.23137024     -2.56587044
  H      0.44519299     -0.68536256     -4.27546009
  H      1.49626913      1.53335361     -4.62194121
  H      4.98471779      0.17018248     -0.50510241
  H      6.01740278      2.36326300     -0.88952736
  H      5.13858915      3.88096537     -2.66237207
  H      3.20612228      3.17993477     -4.03794018
  58
Step 11
  C     -1.54397131     -0.02760732     -0.04618859
  C     -1.07210537     -1.36338399      0.04441043
  C      0.38912766     -1.34415942      0.28662906
  C      0.74917751      0.08799548      0.37652343
  C     -0.42197315      0.87267771      0.21786179
  C     -2.86982029      0.24520094     -0.37879561
  C     -3.73676557     -0.81682569     -0.64297604
  C     -3.27030511     -2.13560905     -0.59951739
  C     -1.94180677     -2.41391768     -0.27144496
  H     -3.22227444      1.27070209     -0.44746991
  H     -4.77284675     -0.61881477     -0.90169777
  H     -3.94625194     -2.95383541     -0.83078542
  H     -1.59746109     -3.44249790     -0.27511484
  C     -0.38781854      2.25613101      0.38476553
  C      1.93664316      0.70704225      0.77412758
  C      0.81921649      2.86633004      0.73054368
  C      1.96805994      2.09386713      0.93422796
  H      2.82973277      0.12133180      0.95974323
  H      2.89709578      2.57710207      1.22091075
  H     -1.28944809      2.85094285      0.26526944
  H      0.86302366      3.94373901      0.86108666
  C      1.20986285     -2.43576575      0.43438203
  C      0.77576162     -3.76084794      1.09387263
  C      2.63741725     -2.58151424      0.07827375
  C      2.11909935     -4.34491382      1.62049170
  C      3.16259655     -3.70258416      0.75446949
  H      2.14828806     -5.43894466      1.57428581
  H      2.24601866     -4.06982262      2.67691934
  C      4.46656255     -4.13491180      0.54320826
  C      5.25159386     -3.48369110     -0.39828417
  C      3.41235558     -1.93340795     -0.92804656
  C      4.71938514     -2.42661979     -1.14940107
  H      4.86039253     -4.99014464      1.08541150
  H      6.26259815     -3.80742619     -0.62154720
  H      0.39313664     -4.44952711      0.32428406
  C     -0.24322159     -3.65632733      2.23694154
  H      0.10202237     -2.93666110      2.98628282
  H     -0.34404652     -4.63123689      2.72671044
  H     -1.23365755     -3.34337296      1.90987202
  O      5.53733169     -1.95160126     -2.13223258
  H      5.09445610     -1.23517360     -2.61022126
  C      2.87118758     -0.92158512     -1.88921213
  C      3.48923849      0.36529233     -2.07608704
  C      1.79732480     -1.26886085     -2.69385216
  C      1.28640839     -0.39171771     -3.67313246
  C      1.86545586      0.84030692     -3.86983687
  C      2.97492389      1.24713305     -3.08665051
  C      4.59432660      0.81615149     -1.29569477
  C      5.16539507      2.04940296     -1.51142086
  C      4.66128641      2.90939116     -2.51597605
  C      3.58869659      2.51495871     -3.28005503
  H      1.33774210     -2.24313421     -2.56475064
  H      0.43928933     -0.70307731     -4.27666972
  H      1.48326921      1.51825861     -4.62816508
  H      4.98069519      0.17229369     -0.51329115
  H      6.00679981      2.36772053     -0.90302430
  H      5.12103378      3.87994515     -2.67711598
  H      3.18870847      3.17111164     -4.04880174
  58
Step 12
  C     -1.54369376     -0.02572047     -0.03740286
  C     -1.06974388     -1.36102510      0.04266612
  C      0.39095219     -1.34234219      0.28548564
  C      0.75077757      0.08952979      0.37956557
  C     -0.42178341      0.87412745      0.22905443
  C     -2.87053731      0.24704485     -0.36635556
  C     -3.73503320     -0.81479610     -0.63921370
  C     -3.26518641     -2.13287488     -0.60945907
  C     -1.93573089     -2.41081750     -0.28501428
  H     -3.22544839      1.27224959     -0.42626017
  H     -4.77174727     -0.61696154     -0.89554020
  H     -3.93900248     -2.95019987     -0.84991529
  H     -1.58634834     -3.43760873     -0.30314495
  C     -0.38782516      2.25677102      0.40058861
  C      1.94000779      0.70768605      0.77059888
  C      0.81953717      2.86550506      0.74726365
  C      1.96939032      2.09265616      0.94279902
  H      2.83280548      0.12123302      0.95504076
  H      2.89843775      2.57447437      1.23170035
  H     -1.29048718      2.85148880      0.28859204
  H      0.86209614      3.94181198      0.88694624
  C      1.21045510     -2.43455394      0.43179120
  C      0.77869041     -3.75985373      1.09138310
  C      2.63888530     -2.57980880      0.07730752
  C      2.12297216     -4.32386591      1.63845124
  C      3.16585228     -3.69430925      0.76253338
  H      2.15726462     -5.41850610      1.62152212
  H      2.24229429     -4.01807245      2.68746312
  C      4.46883275     -4.12893734      0.55093250
  C      5.25167786     -3.48440630     -0.39745720
  C      3.41181235     -1.93718578     -0.93333782
  C      4.71869282     -2.43163620     -1.15381053
  H      4.86435322     -4.97971404      1.09882298
  H      6.26221940     -3.80985834     -0.62040474
  H      0.41808399     -4.45588247      0.31744050
  C     -0.25635370     -3.66657808      2.21986590
  H      0.06226019     -2.93117818      2.96580204
  H     -0.33939822     -4.63878948      2.71816057
  H     -1.25020302     -3.38096660      1.87824953
  O      5.53458002     -1.96240521     -2.14095997
  H      5.09298120     -1.24516564     -2.61878779
  C      2.87051917     -0.92564118     -1.89459391
  C      3.48881965      0.36122922     -2.08129216
  C      1.79520101     -1.27174896     -2.69762925
  C      1.28329254     -0.39378813     -3.67565656
  C      1.86245607      0.83817126     -3.87227083
  C      2.97322508      1.24401539     -3.09045347
  C      4.59508470      0.81132719     -1.30217225
  C      5.16649799      2.04445641     -1.51816843
  C      4.66121602      2.90518284     -2.52138152
  C      3.58715444      2.51166338     -3.28393899
  H      1.33526407     -2.24585141     -2.56837303
  H      0.43504956     -0.70430108     -4.27801278
  H      1.47930087      1.51681649     -4.62947897
  H      4.98219217      0.16723841     -0.52034995
  H      6.00896115      2.36197905     -0.91082687
  H      5.12101900      3.87566097     -2.68269985
  H      3.18632012      3.16853949     -4.05161895
  58
Step 13
  C     -1.54711622     -0.02773367     -0.03309145
  C     -1.07160769     -1.36277932      0.04182602
  C      0.38910052     -1.34318096      0.28359430
  C      0.74826290      0.08848282      0.37956363
  C     -0.42537913      0.87235504      0.23324176
  C     -2.87497595      0.24459218     -0.35835417
  C     -3.73854852     -0.81731403     -0.63382291
  C     -3.26677181     -2.13484222     -0.61082076
  C     -1.93642569     -2.41232171     -0.28967531
  H     -3.23127851      1.26956836     -0.41395065
  H     -4.77601788     -0.61990686     -0.88745274
  H     -3.93979423     -2.95194681     -0.85426909
  H     -1.58509467     -3.43834159     -0.31463706
  C     -0.39133517      2.25503774      0.40485685
  C      1.93834975      0.70740821      0.76767450
  C      0.81750002      2.86494103      0.74501901
  C      1.96878222      2.09294288      0.93598837
  H      2.83419106      0.12227285      0.94136748
  H      2.89956563      2.57576984      1.21766714
  H     -1.29463749      2.84931161      0.29584939
  H      0.86063783      3.94168044      0.88118009
  C      1.20897271     -2.43537266      0.42994662
  C      0.77787783     -3.75886374      1.09404208
  C      2.63719082     -2.58067170      0.07475910
  C      2.12336890     -4.32007047      1.64114890
  C      3.16497668     -3.69437783      0.76109243
  H      2.15729101     -5.41472123      1.63182292
  H      2.24349786     -4.00636842      2.68775617
  C      4.46746192     -4.12960151      0.54838894
  C      5.24996719     -3.48536235     -0.40065803
  C      3.40991355     -1.93864981     -0.93645408
  C      4.71689704     -2.43236340     -1.15632536
  H      4.86345622     -4.97991227      1.09664557
  H      6.26056803     -3.81052530     -0.62374869
  H      0.41755310     -4.45785251      0.32271955
  C     -0.25407164     -3.66355992      2.22493500
  H      0.06803992     -2.92836181      2.96954143
  H     -0.33645659     -4.63529878      2.72423064
  H     -1.24855938     -3.37681054      1.88650120
  O      5.53249443     -1.96103326     -2.14272639
  H      5.08860809     -1.24415938     -2.61895043
  C      2.87049095     -0.92625252     -1.89768801
  C      3.49017441      0.36026515     -2.08172664
  C      1.79741886     -1.27120097     -2.70417546
  C      1.28838697     -0.39194631     -3.68257451
  C      1.86846293      0.84002541     -3.87617058
  C      2.97749294      1.24446360     -3.09113357
  C      4.59444656      0.80901684     -1.29909091
  C      5.16673521      2.04225597     -1.51188310
  C      4.66452564      2.90437057     -2.51547726
  C      3.59247338      2.51208765     -3.28145039
  H      1.33720156     -2.24552506     -2.57768366
  H      0.44174108     -0.70156389     -4.28763262
  H      1.48766680      1.51971207     -4.63364122
  H      4.97896345      0.16401537     -0.51672603
  H      6.00746253      2.35880228     -0.90162305
  H      5.12499773      3.87494973     -2.67426972
  H      3.19386771      3.16997237     -4.04943015
  58
Step 14
  C     -1.54591464     -0.02683263     -0.03493105
  C     -1.07121603     -1.36218569      0.04136437
  C      0.38948927     -1.34317262      0.28357816
  C      0.74907473      0.08821161      0.37980263
  C     -0.42403272      0.87271422      0.23230044
  C     -2.87347438      0.24607994     -0.36087185
  C     -3.73777122     -0.81551956     -0.63531802
  C     -3.26711582     -2.13340198     -0.61002940
  C     -1.93708648     -2.41153200     -0.28811692
  H     -3.22908767      1.27123786     -0.41745036
  H     -4.77510894     -0.61768690     -0.88914117
  H     -3.94088500     -2.95039613     -0.85177930
  H     -1.58717744     -3.43810497     -0.30996423
  C     -0.38943879      2.25542016      0.40371962
  C      1.93943958      0.70680006      0.76847630
  C      0.81921493      2.86484236      0.74564053
  C      1.97003145      2.09243336      0.93776966
  H      2.83337890      0.12067232      0.94845457
  H      2.90043062      2.57482959      1.22146266
  H     -1.29237201      2.85007376      0.29378539
  H      0.86249572      3.94148093      0.88255718
  C      1.20939553     -2.43551926      0.43040378
  C      0.77778891     -3.75983589      1.09288862
  C      2.63736641     -2.58059408      0.07562926
  C      2.12296734     -4.32294767      1.63901607
  C      3.16500934     -3.69512922      0.76100021
  H      2.15694471     -5.41755827      1.62643217
  H      2.24300028     -4.01256786      2.68662276
  C      4.46785614     -4.12946840      0.54886680
  C      5.25081282     -3.48393054     -0.39892853
  C      3.41044066     -1.93751618     -0.93466215
  C      4.71779708     -2.43050269     -1.15405995
  H      4.86364054     -4.98045259      1.09623348
  H      6.26162207     -3.80860658     -0.62174969
  H      0.41637594     -4.45792330      0.32139135
  C     -0.25424185     -3.66458591      2.22391824
  H      0.07086353     -2.93362449      2.97138856
  H     -0.34112631     -4.63774749      2.71973481
  H     -1.24727659     -3.37226284      1.88591992
  O      5.53402588     -1.95779330     -2.13937208
  H      5.08956825     -1.24213235     -2.61690982
  C      2.87038063     -0.92593716     -1.89647549
  C      3.48942037      0.36070557     -2.08175208
  C      1.79735188     -1.27210443     -2.70258557
  C      1.28774405     -0.39390888     -3.68162589
  C      1.86730514      0.83811973     -3.87644611
  C      2.97625450      1.24374217     -3.09190641
  C      4.59357770      0.81065256     -1.29964005
  C      5.16507030      2.04408733     -1.51344213
  C      4.66237820      2.90507214     -2.51778588
  C      3.59056534      2.51152582     -3.28343894
  H      1.33757183     -2.24651927     -2.57521521
  H      0.44114266     -0.70442764     -4.28629550
  H      1.48610553      1.51694528     -4.63449113
  H      4.97878359      0.16641278     -0.51696342
  H      6.00568117      2.36161982     -0.90353782
  H      5.12235837      3.87574845     -2.67743641
  H      3.19156735      3.16850822     -4.05198989
  58
Step 15
  C     -1.54554740     -0.02667199     -0.03560635
  C     -1.07056136     -1.36194363      0.04062869
  C      0.38995977     -1.34269413      0.28361868
  C      0.74921628      0.08872990      0.38010053
  C     -0.42402845      0.87302827      0.23245634
  C     -2.87305216      0.24597730     -0.36194311
  C     -3.73698606     -0.81578793     -0.63694290
  C     -3.26604528     -2.13356338     -0.61167547
  C     -1.93606514     -2.41143573     -0.28931269
  H     -3.22890830      1.27105442     -0.41840730
  H     -4.77426998     -0.61815612     -0.89113595
  H     -3.93953654     -2.95068636     -0.85375618
  H     -1.58597223     -3.43795961     -0.31082229
  C     -0.38991628      2.25567231      0.40442106
  C      1.93940188      0.70755754      0.76862123
  C      0.81825052      2.86514517      0.74769289
  C      1.96913260      2.09290161      0.94001001
  H      2.83418347      0.12190072      0.94593842
  H      2.89909543      2.57533627      1.22501523
  H     -1.29304296      2.85007634      0.29470842
  H      0.86102558      3.94162903      0.88596633
  C      1.20996968     -2.43493224      0.43101417
  C      0.77816878     -3.75949728      1.09291179
  C      2.63793956     -2.58007572      0.07649802
  C      2.12321218     -4.32218217      1.63998340
  C      3.16538111     -3.69478229      0.76186282
  H      2.15736054     -5.41678429      1.62803918
  H      2.24284758     -4.01119783      2.68747507
  C      4.46793196     -4.12969916      0.54933040
  C      5.25073957     -3.48483824     -0.39904790
  C      3.41099355     -1.93733127     -0.93402051
  C      4.71797481     -2.43127758     -1.15412552
  H      4.86347679     -4.98092726      1.09649481
  H      6.26114654     -3.81034075     -0.62247936
  H      0.41765040     -4.45764133      0.32104888
  C     -0.25495594     -3.66486477      2.22300999
  H      0.06948248     -2.93436765      2.97122806
  H     -0.34246134     -4.63832415      2.71815743
  H     -1.24762236     -3.37226432      1.88420790
  O      5.53403234     -1.95979102     -2.14020356
  H      5.08963933     -1.24480038     -2.61880390
  C      2.87060080     -0.92574262     -1.89569355
  C      3.48964131      0.36083057     -2.08166713
  C      1.79662810     -1.27175144     -2.70061818
  C      1.28629733     -0.39362881     -3.67933890
  C      1.86600604      0.83820133     -3.87500141
  C      2.97575239      1.24374680     -3.09155289
  C      4.59458233      0.81076454     -1.30063236
  C      5.16617760      2.04399771     -1.51530559
  C      4.66272681      2.90486687     -2.51937427
  C      3.59013074      2.51137717     -3.28394995
  H      1.33662680     -2.24596476     -2.57249817
  H      0.43899769     -0.70404210     -4.28308372
  H      1.48424259      1.51696353     -4.63281743
  H      4.98046854      0.16657671     -0.51826499
  H      6.00745003      2.36149751     -0.90629869
  H      5.12280462      3.87538684     -2.67969350
  H      3.19058871      3.16823714     -4.05232097

======= END OF MOLDEN-FORMATTED INPUT FILE =======


        *************************************************************
        *                                                           *
        *  Thank you very much for using Q-Chem.  Have a nice day.  *
        *                                                           *
        *************************************************************


0 sent ACK to 0 
now end server 0 ... 
