[Molden Format]
[Geometries] (XYZ)
47

C       -1.582497      -0.316862       0.251800
C       -1.225092      -1.663893       0.153570
C        0.250951      -1.776834       0.345116
C        0.702562      -0.367388       0.577205
C       -0.420177       0.465117       0.520287
C       -2.906633       0.100149       0.043197
C       -3.854232      -0.863963      -0.309117
C       -3.480474      -2.200364      -0.485329
C       -2.158521      -2.603744      -0.281552
H       -3.191463       1.145174       0.130619
H       -4.887125      -0.566522      -0.480413
H       -4.223627      -2.929624      -0.801743
H       -1.867810      -3.632058      -0.472623
C       -0.316720       1.845774       0.751944
C        1.931333       0.152918       0.986000
C        0.935878       2.367589       1.081631
C        2.045449       1.526696       1.211622
H        2.791867      -0.487855       1.144584
H        3.005947       1.943792       1.507606
H       -1.185636       2.495855       0.696336
H        1.043502       3.434193       1.269437
C        0.980109      -2.901753       0.383976
C        0.504602      -4.265567       0.882542
C        2.452322      -2.943967       0.168095
C        1.828728      -4.896007       1.414405
C        2.936167      -4.070889       0.800776
H        1.904398      -5.951325       1.142308
H        1.904440      -4.811890       2.501680
C        4.287562      -4.397041       0.786988
C        5.161200      -3.587013       0.061950
C        3.290159      -2.223866      -0.702987
C        4.664487      -2.528440      -0.707183
H        4.651324      -5.274919       1.317314
H        6.222848      -3.823008       0.039883
C        5.541452      -1.805190      -1.517571
C        2.810775      -1.262803      -1.601711
C        3.690056      -0.550803      -2.414951
C        5.056764      -0.808749      -2.361423
H        1.748253      -1.060287      -1.686763
H        3.304739       0.206857      -3.094717
H        6.604977      -2.030750      -1.509311
H        5.741343      -0.250534      -2.997244
H        0.141965      -4.863558       0.043068
C       -0.508141      -4.255883       2.057448
H       -0.151124      -3.614880       2.867403
H       -0.631378      -5.266387       2.454050
H       -1.495542      -3.906844       1.769229
47

C       -1.579972      -0.323159       0.021892
C       -1.270067      -1.679429       0.175935
C        0.209481      -1.797791       0.388875
C        0.676312      -0.380297       0.475066
C       -0.406032       0.462714       0.213871
C       -2.894593       0.101697      -0.226370
C       -3.891137      -0.868277      -0.347062
C       -3.581327      -2.225876      -0.224871
C       -2.271675      -2.641038       0.028710
H       -3.139628       1.155865      -0.323275
H       -4.917942      -0.565061      -0.543122
H       -4.369474      -2.968281      -0.333364
H       -2.058741      -3.699968       0.098886
C       -0.278489       1.858208       0.300660
C        1.863148       0.151064       0.979607
C        0.953261       2.385066       0.695694
C        2.007976       1.538429       1.051255
H        2.669203      -0.497169       1.310421
H        2.944899       1.962902       1.406531
H       -1.118856       2.517138       0.100707
H        1.079035       3.463300       0.772678
C        0.940607      -2.926599       0.380810
C        0.442384      -4.269789       0.909267
C        2.416371      -2.988582       0.158902
C        1.748134      -5.088546       1.125765
C        2.874407      -4.168763       0.711990
H        1.745688      -5.967624       0.476771
H        1.875842      -5.427316       2.157191
C        4.227516      -4.486264       0.751272
C        5.135212      -3.611368       0.156593
C        3.296194      -2.211157      -0.618553
C        4.672260      -2.504796      -0.563036
H        4.566782      -5.410624       1.214558
H        6.198732      -3.839628       0.177710
C        5.588278      -1.724661      -1.270925
C        2.862592      -1.215076      -1.501696
C        3.779377      -0.445863      -2.215240
C        5.143937      -0.685059      -2.083989
H        1.804692      -1.037540      -1.660974
H        3.424600       0.339551      -2.880229
H        6.652119      -1.941199      -1.210237
H        5.858657      -0.083351      -2.642114
H       -0.180601      -4.786620       0.176860
C       -0.278508      -4.154628       2.278236
H        0.398563      -3.757012       3.038578
H       -0.623471      -5.137496       2.607179
H       -1.145775      -3.497377       2.240019
47

C       -1.612485      -0.442448      -0.233574
C       -1.300914      -1.670850       0.367795
C        0.188718      -1.703097       0.596470
C        0.565144      -0.279433       0.442263
C       -0.474442       0.412604      -0.176830
C       -2.928292      -0.113660      -0.595965
C       -3.935288      -1.046864      -0.349835
C       -3.642061      -2.252778       0.291093
C       -2.333749      -2.565658       0.668160
H       -3.170821       0.852891      -1.029073
H       -4.963334      -0.816723      -0.623428
H       -4.446440      -2.952115       0.511022
H       -2.159650      -3.495243       1.192288
C       -0.419705       1.806797      -0.337395
C        1.536586       0.428764       1.148510
C        0.673066       2.490206       0.202881
C        1.623948       1.811810       0.972967
H        2.227602      -0.093925       1.805602
H        2.418758       2.368961       1.465180
H       -1.233800       2.356352      -0.802228
H        0.738255       3.571686       0.098022
C        0.957541      -2.810815       0.497461
C        0.408733      -4.157859       0.950305
C        2.416598      -2.972379       0.083897
C        1.538449      -5.166918       0.685669
C        2.719333      -4.316605       0.300940
H        1.282142      -5.831015      -0.143416
H        1.759007      -5.780674       1.563078
C        3.984101      -4.856280       0.118968
C        5.006894      -4.029895      -0.314687
C        3.434427      -2.159608      -0.498307
C        4.733528      -2.704375      -0.645988
H        4.169556      -5.910511       0.315739
H        6.007254      -4.434957      -0.451246
C        5.787829      -1.952203      -1.170214
C        3.252728      -0.866086      -1.008293
C        4.300302      -0.117826      -1.539913
C        5.578299      -0.651001      -1.604396
H        2.289704      -0.408860      -1.048820
H        4.109499       0.885317      -1.916983
H        6.779963      -2.388341      -1.258712
H        6.397440      -0.069388      -2.023092
H       -0.469609      -4.465682       0.382902
C        0.116632      -4.146639       2.473751
H        1.043070      -4.056141       3.046848
H       -0.384530      -5.069973       2.772969
H       -0.520014      -3.305912       2.755045
47

C       -1.541317      -0.656025      -0.381033
C       -1.194074      -1.581804       0.608544
C        0.295166      -1.495521       0.832799
C        0.572012      -0.115758       0.308356
C       -0.457289       0.245833      -0.569871
C       -2.863377      -0.531027      -0.840091
C       -3.838008      -1.362866      -0.287444
C       -3.511171      -2.248048       0.742035
C       -2.198677      -2.351047       1.206880
H       -3.138037       0.220285      -1.575268
H       -4.868686      -1.286907      -0.628610
H       -4.292490      -2.855229       1.195756
H       -1.985596      -3.028902       2.026034
C       -0.527072       1.525325      -1.146631
C        1.263106       0.937443       0.916403
C        0.390332       2.487826      -0.727393
C        1.239428       2.212533       0.346002
H        1.816143       0.770179       1.837448
H        1.849237       3.007814       0.769363
H       -1.330875       1.799663      -1.823858
H        0.354708       3.491707      -1.145873
C        1.042323      -2.638478       0.790186
C        0.428374      -3.973837       1.212136
C        2.432674      -2.933603       0.217133
C        1.297225      -5.058425       0.559431
C        2.488717      -4.315255       0.034659
H        0.755926      -5.521830      -0.269470
H        1.595892      -5.839958       1.262134
C        3.533266      -4.971397      -0.603118
C        4.595104      -4.227151      -1.091241
C        3.573528      -2.196107      -0.196031
C        4.624907      -2.850988      -0.877326
H        3.508230      -6.051163      -0.735371
H        5.413792      -4.723051      -1.608175
C        5.739995      -2.146601      -1.340244
C        3.770013      -0.853583       0.089784
C        4.882533      -0.141390      -0.351750
C        5.862947      -0.784607      -1.094018
H        3.095738      -0.379315       0.744456
H        4.989584       0.911424      -0.099147
H        6.530819      -2.665020      -1.876795
H        6.733395      -0.236081      -1.447883
H       -0.560708      -4.132847       0.790222
C        0.417519      -4.109918       2.752290
H        1.436204      -4.209180       3.135427
H       -0.154603      -4.989527       3.055339
H       -0.016890      -3.224934       3.221257
47

C       -1.771329      -0.434664       0.132984
C       -1.162235      -1.400581       0.930408
C        0.294069      -1.481900       0.585231
C        0.488428      -0.312033      -0.358230
C       -0.779601       0.220873      -0.645288
C       -3.139485      -0.140588       0.253853
C       -3.883869      -0.839888       1.205567
C       -3.267604      -1.777249       2.038964
C       -1.903241      -2.050826       1.917444
H       -3.610880       0.624114      -0.357297
H       -4.946156      -0.631632       1.319321
H       -3.854271      -2.289230       2.799235
H       -1.440902      -2.754102       2.595292
C       -0.947301       1.353973      -1.458043
C        1.612689       0.365517      -0.843831
C        0.186806       1.965180      -1.986641
C        1.455305       1.479367      -1.671495
H        2.616300       0.052469      -0.634242
H        2.335951       1.980361      -2.068462
H       -1.932269       1.767537      -1.655936
H        0.084812       2.842039      -2.623315
C        0.969447      -2.647504       0.536093
C        0.334946      -4.019847       0.688131
C        2.334281      -2.840263      -0.004707
C        1.094370      -4.852198      -0.392206
C        2.363364      -4.060471      -0.645866
H        0.503939      -4.952132      -1.305956
H        1.340366      -5.851202      -0.023673
C        3.491531      -4.493732      -1.334644
C        4.641938      -3.701634      -1.290987
C        3.526043      -2.137326       0.205358
C        4.676539      -2.556041      -0.484604
H        3.487716      -5.444325      -1.864063
H        5.539566      -4.024794      -1.813283
C        5.874966      -1.858446      -0.323868
C        3.628110      -1.109845       1.149865
C        4.832345      -0.428438       1.318435
C        5.948847      -0.788289       0.566759
H        2.767575      -0.836706       1.756193
H        4.899503       0.384398       2.039206
H        6.763653      -2.167179      -0.868800
H        6.887316      -0.252747       0.697552
H       -0.724308      -4.008626       0.422854
C        0.559210      -4.625733       2.094263
H        1.617101      -4.852796       2.247972
H       -0.009445      -5.551557       2.205586
H        0.265834      -3.938654       2.886302
47

C       -1.640549      -0.211415       0.451860
C       -1.270456      -1.534807       0.714747
C        0.114187      -1.747141       0.180836
C        0.438050      -0.458134      -0.515044
C       -0.612474       0.436532      -0.292190
C       -2.877362       0.300559       0.875400
C       -3.730297      -0.540664       1.591656
C       -3.353027      -1.854516       1.882733
C       -2.120603      -2.356561       1.456981
H       -3.171244       1.323854       0.656679
H       -4.693885      -0.167519       1.933357
H       -4.023983      -2.491021       2.456154
H       -1.848042      -3.367086       1.724715
C       -0.606170       1.725924      -0.847984
C        1.444090      -0.122436      -1.423930
C        0.461488       2.084460      -1.672683
C        1.466396       1.161091      -1.973798
H        2.197434      -0.840267      -1.726792
H        2.264597       1.437270      -2.659625
H       -1.420165       2.423648      -0.669456
H        0.489349       3.076542      -2.119683
C        0.872736      -2.851231       0.291956
C        0.370907      -4.260484       0.548019
C        2.296879      -2.943784      -0.113172
C        1.276780      -5.090270      -0.410158
C        2.507155      -4.222024      -0.589598
H        0.783572      -5.228926      -1.375083
H        1.525547      -6.070876       0.002190
C        3.752733      -4.629050      -1.054921
C        4.817426      -3.728139      -0.982138
C        3.387055      -2.093228       0.122071
C        4.647618      -2.482025      -0.365092
H        3.898198      -5.635106      -1.443215
H        5.800143      -4.025172      -1.340552
C        5.750223      -1.643524      -0.192546
C        3.276328      -0.913623       0.866760
C        4.383273      -0.085536       1.042032
C        5.615552      -0.441408       0.499572
H        2.328589      -0.629966       1.316624
H        4.282424       0.840045       1.605285
H        6.723172      -1.934793      -0.579856
H        6.477918       0.207854       0.638279
H       -0.669385      -4.395454       0.246454
C        0.572841      -4.690833       2.018939
H        1.613391      -4.558377       2.324907
H        0.309438      -5.743470       2.146692
H       -0.057880      -4.106265       2.690047
[GEOCONV]
energy
0.0
1.7492376531650393
18.370093081283002
34.40163973152278
5.748190259093477
-3.6858058119601083
max-force
0.0
0.00017403389404633735
0.00014613284131464693
0.0012307960245781717
0.00018827442901474454
0.0007875354334986892
max-step
1000.0
1000.0
1000.0
1000.0
1000.0
1000.0
